Executable      : siesta
Version         : 5.0.1
Architecture    : x86_64
Compiler version: GNU-12.4.0
Compiler flags  : -march=nocona -mtune=haswell -ftree-vectorize -fPIC -fstack-protector-strong -fno-plt -O2 -ffunction-sections -pipe -isystem <prefix>/include -fdebug-prefix-map=<prefix>/work=/usr/local/src/conda/siesta-5.0.1 -fdebug-prefix-map=<prefix>=/usr/local/src/conda-prefix -I<prefix>/lib -fallow-argument-mismatch -O3
Parallelisations: MPI
NetCDF support
NetCDF-4 support
NetCDF-4 MPI-IO support
Lua support
Native ELPA support
DFT-D3 support

Runtime information:
* Directory : /home/carlos/documents/siesta-hands-on/siesta-complete-guide/Chapter-8/smearing/ec_150
* Running on 2 nodes in parallel.
>> Start of run:   5-DEC-2024  17:43:00

                           *********************** 
                           *  WELCOME TO SIESTA  * 
                           *********************** 

 NOTE: Siesta V5 introduces some new defaults for basis-set generation
 NOTE: which might lead to slightly different numerical results.
 NOTE: Please see the manual for full details and compatibility measures.


reinit: Reading from file calc.fdf

reinit: -----------------------------------------------------------------------
reinit: System Name: Si bulk diamond
reinit: -----------------------------------------------------------------------
reinit: System Label: Si-diamond
reinit: -----------------------------------------------------------------------

initatom: Reading input for the pseudopotentials and atomic orbitals ----------
Species number:   1 Atomic number:   14 Label: Si

Ground state valence configuration (from tables):   3s02  3p02  3d00  4f00

---- Processing specs for species: Si
Reading pseudopotential information in unformatted form from:
  Si.vps

---- Pseudopotential check for Si

Pseudized shells:
3s( 2.00) rc: 1.23
3p( 2.00) rc: 1.43
Valence configuration for ps generation: (assumed as above)
For Si, standard SIESTA heuristics set lmxkb to 3
 (one more than the basis l, including polarization orbitals).
Use PS.lmax or PS.KBprojectors blocks to override.
Si pseudopotential only contains V_ls up to l=1 -- lmxkb reset.

<basis_specs>
===============================================================================
Si                   Z=  14    Mass=  28.090        Charge= 0.17977+309
Lmxo=2 Lmxkb= 1    BasisType=split      Semic=F
L=0  Nsemic=0  Cnfigmx=3
          i=1  nzeta=2  polorb=0  (3s)
            splnorm:   0.15000    
               vcte:    40.000    
               rinn:  -0.90000    
               qcoe:    0.0000    
               qyuk:    0.0000    
               qwid:   0.10000E-01
                rcs:    0.0000      0.0000    
            lambdas:    1.0000      1.0000    
L=1  Nsemic=0  Cnfigmx=3
          i=1  nzeta=2  polorb=1  (3p)  (to be polarized perturbatively)
            splnorm:   0.15000    
               vcte:    40.000    
               rinn:  -0.90000    
               qcoe:    0.0000    
               qyuk:    0.0000    
               qwid:   0.10000E-01
                rcs:    0.0000      0.0000    
            lambdas:    1.0000      1.0000    
L=2  Nsemic=0  Cnfigmx=3
          i=1  nzeta=0  polorb=0  (3d)  (perturbative polarization orbital) (from 3p)
-------------------------------------------------------------------------------
L=0  Nkbl=1  erefs: 0.17977+309
L=1  Nkbl=1  erefs: 0.17977+309
===============================================================================
</basis_specs>

Using PAO.SplitTailNorm
atom: Called for Si                    (Z =  14)
NOTE: Si pseudopotential has channels up to l= 1
NOTE: PAOs with higher l will be generated with V_local
Maximum radius (at nrval) set to   50.00000 8518

read_vps: Pseudopotential generation method:
read_vps: ATM4.2.7  Kerker                                  
Valence charge in pseudo generation:    4.00000

xc_check: Exchange-correlation functional:
xc_check: GGA Perdew, Burke & Ernzerhof 1996
V l=0 = -2*Zval/r beyond r=  2.8074
V l=1 = -2*Zval/r beyond r=  2.8074
All V_l potentials equal beyond r=  1.5163
This should be close to max(r_c) in ps generation
All pots = -2*Zval/r beyond r=  2.8074
Using large-core scheme (fit) for Vlocal

atom: Estimated core radius    2.80744

atom: Including non-local core corrections could be a good idea
Fit of Vlocal with continuous 2nd derivative
Fitting vlocal at       1.5209
Choosing vlocal chloc cutoff:  5726  3.054333
qtot up to nchloc:    3.99984030
atom: Maximum radius for chlocal:    3.05433
atom: Maximum radius for r*vlocal+2*Zval:    3.05433

KBgen: Kleinman-Bylander projectors: 
GHOST: No ghost state for L =  0
   l= 0   rc=  1.511703   el= -0.791527   Ekb=  6.361810   kbcos=  0.278083
GHOST: No ghost state for L =  1
   l= 1   rc=  1.575389   el= -0.300579   Ekb=  2.611741   kbcos=  0.260518

KBgen: Total number of Kleinman-Bylander projectors:   4
atom: -------------------------------------------------------------------------

atom: SANKEY-TYPE ORBITALS:
atom: Selected multiple-zeta basis: split     

SPLIT: Orbitals with angular momentum L= 0

SPLIT: Basis orbitals for state 3s

SPLIT: PAO cut-off radius determined from an
SPLIT: energy shift=  0.010000 Ry
Split based on tail norm

   izeta = 1
                 lambda =    1.000000
                     rc =    5.403143
                 energy =   -0.779945
                kinetic =    0.563858
    potential(screened) =   -1.343803
       potential(ionic) =   -3.794934

   izeta = 2
                 rmatch =    3.854490
              splitnorm =    0.150000
                 energy =   -0.529540
                kinetic =    1.167421
    potential(screened) =   -1.696961
       potential(ionic) =   -4.291182

SPLIT: Orbitals with angular momentum L= 1

SPLIT: Basis orbitals for state 3p

SPLIT: PAO cut-off radius determined from an
SPLIT: energy shift=  0.010000 Ry
Split based on tail norm

   izeta = 1
                 lambda =    1.000000
                     rc =    6.843982
                 energy =   -0.289102
                kinetic =    0.857285
    potential(screened) =   -1.146387
       potential(ionic) =   -3.385088

   izeta = 2
                 rmatch =    4.952104
              splitnorm =    0.150000
                 energy =   -0.182759
                kinetic =    1.296336
    potential(screened) =   -1.479095
       potential(ionic) =   -3.923275
*Note: V_local used for l= 2

** Using vlocal for PAOs with L= 2

POLgen: Perturbative polarization orbital with L=  2

POLgen: Polarization orbital for state 3p
*Note: V_local used for lpol= 2

** Using vlocal for PAOs with L= 2
Split based on tail norm

   izeta = 1
                     rc =    6.843982
                 energy =    0.369369
                kinetic =    1.362956
    potential(screened) =   -0.993588
       potential(ionic) =   -3.078590
atom: Total number of Sankey-type orbitals: 13

atm_pop: Valence configuration (for local Pseudopot. screening):
 3s( 2.00)                                                            
 3p( 2.00)                                                            
 3d( 0.00)                                                            
Vna: chval, zval:    4.00000   4.00000

Vna:  Cut-off radius for the neutral-atom potential:   6.843982

atom: _________________________________________________________________________

prinput: Basis input 

PAO.BasisType split     

%block ChemicalSpeciesLabel
    1   14 Si                      # Species index, atomic number, species label
%endblock ChemicalSpeciesLabel

%block PAO.Basis                 # Define Basis set
# WARNING: This information might be incomplete!
Si                    2                    # Species label, number of l-shells
 n=3   0   2                         # n, l, Nzeta 
   5.403      3.854   
   1.000      1.000   
 n=3   1   2 P   1                   # n, l, Nzeta, Polarization, NzetaPol
   6.844      4.952   
   1.000      1.000   
%endblock PAO.Basis

prinput: ----------------------------------------------------------------------

Dumping basis to NetCDF file Si.ion.nc
coor:   Atomic-coordinates input format  =     Fractional

siesta: Atomic coordinates (Bohr) and species
siesta:      3.30702   3.30702   3.30702  1        1
siesta:      0.00000   0.00000   0.00000  1        2

siesta: System type = bulk      

initatomlists: Number of atoms, orbitals, and projectors:      2    26     8

siesta: ******************** Simulation parameters ****************************
siesta:
siesta: The following are some of the parameters of the simulation.
siesta: A complete list of the parameters used, including default values,
siesta: can be found in file out.fdf
siesta:
redata: Spin configuration                          = none
redata: Number of spin components                   = 1
redata: Time-Reversal Symmetry                      = T
redata: Spin spiral                                 = F
redata: Long output                                 =   F
redata: Number of Atomic Species                    =        1
redata: Charge density info will appear in .RHO file
redata: Write Mulliken Pop.                         = NO
redata: Matel table size (NRTAB)                    =     1024
redata: Mesh Cutoff                                 =   300.0000 Ry
redata: Net charge of the system                    =     0.0000 |e|
redata: Min. number of SCF Iter                     =        0
redata: Max. number of SCF Iter                     =      300
redata: SCF convergence failure will abort job
redata: SCF mix quantity                            = Hamiltonian
redata: Mix DM or H after convergence               =   F
redata: Recompute H after scf cycle                 =   F
redata: Mix DM in first SCF step                    =   T
redata: Write Pulay info on disk                    =   F
redata: New DM Occupancy tolerance                  = 0.000000000001
redata: No kicks to SCF
redata: DM Mixing Weight for Kicks                  =     0.5000
redata: Require Harris convergence for SCF          =   F
redata: Harris energy tolerance for SCF             =     0.000100 eV
redata: Require DM convergence for SCF              =   T
redata: DM tolerance for SCF                        =     0.000100
redata: Require EDM convergence for SCF             =   F
redata: EDM tolerance for SCF                       =     0.001000 eV
redata: Require H convergence for SCF               =   T
redata: Hamiltonian tolerance for SCF               =     0.001000 eV
redata: Require (free) Energy convergence for SCF   =   F
redata: (free) Energy tolerance for SCF             =     0.000100 eV
redata: Using DFT-D3 dispersion                     =   F
redata: Using Saved Data (generic)                  =   F
redata: Use continuation files for DM               =   T
redata: Neglect nonoverlap interactions             =   F
redata: Method of Calculation                       = Diagonalization
redata: Electronic Temperature                      =   150.0000 K
redata: Fix the spin of the system                  =   F
redata: Max. number of TDED Iter                    =        1
redata: Number of TDED substeps                     =        3
redata: Dynamics option                             = CG coord. optimization
redata: Variable cell                               =   T
redata: Use continuation files for CG               =   F
redata: Max atomic displ per move                   =     0.1058 Ang
redata: Maximum number of optimization moves        =       30
redata: Force tolerance                             =     0.0010 eV/Ang
redata: Stress tolerance                            =     1.0000 GPa
mix.SCF: Pulay mixing                            = Pulay
mix.SCF:    Variant                              = stable
mix.SCF:    History steps                        = 2
mix.SCF:    Linear mixing weight                 =     0.250000
mix.SCF:    Mixing weight                        =     0.250000
mix.SCF:    SVD condition                        = 0.1000E-07
redata: Save all siesta data in one NC              =   F
redata: ***********************************************************************

%block SCF.Mixers
  Pulay
%endblock SCF.Mixers

%block SCF.Mixer.Pulay
  # Mixing method
  method pulay
  variant stable

  # Mixing options
  weight 0.2500
  weight.linear 0.2500
  history 2
%endblock SCF.Mixer.Pulay

DM_history_depth set to one: no extrapolation allowed by default for geometry relaxation
Size of DM history Fstack: 1
Total number of electrons:     8.000000
Total ionic charge:     8.000000

* ProcessorY, Blocksize:    2  14


* Orbital distribution balance (max,min):    14    12

k-point displ. along   1 input, could be:     0.00    0.50
k-point displ. along   2 input, could be:     0.00    0.50
k-point displ. along   3 input, could be:     0.00    0.50
 Kpoints in:          144 . Kpoints trimmed:          132

siesta: k-grid: Number of k-points = 132
siesta: k-points from Monkhorst-Pack grid
siesta: k-cutoff (effective) =    14.849 Ang
siesta: k-point supercell and displacements
siesta: k-grid:     6     0     0      0.000
siesta: k-grid:     0     6     0      0.000
siesta: k-grid:     0     0     6      0.000

diag: Algorithm                                     = D&C
diag: Parallel over k                               =   F
diag: Use parallel 2D distribution                  =   F
diag: Parallel block-size                           = 14
diag: Parallel distribution                         =     1 x     2
diag: Used triangular part                          = Lower
diag: Absolute tolerance                            =  0.100E-15
diag: Orthogonalization factor                      =  0.100E-05
diag: Memory factor                                 =  1.0000

superc: Internal auxiliary supercell:     3 x     3 x     3  =      27
superc: Number of atoms, orbitals, and projectors:     54    702    216


ts: **************************************************************
ts: Save H and S matrices                           =    F
ts: Save DM and EDM matrices                        =    F
ts: Only save the overlap matrix S                  =    F
ts: **************************************************************

************************ Begin: TS CHECKS AND WARNINGS ************************
************************ End: TS CHECKS AND WARNINGS **************************


                     ====================================
                        Begin CG opt. move =      0
                     ====================================

superc: Internal auxiliary supercell:     3 x     3 x     3  =      27
superc: Number of atoms, orbitals, and projectors:     54    702    216

outcell: Unit cell vectors (Ang):
        0.000000    3.500000    3.500000
        3.500000    0.000000    3.500000
        3.500000    3.500000    0.000000

outcell: Cell vector modules (Ang)   :    4.949747    4.949747    4.949747
outcell: Cell angles (23,13,12) (deg):     60.0000     60.0000     60.0000
outcell: Cell volume (Ang**3)        :     85.7500
<dSpData1D:S at geom step 0
  <sparsity:sparsity for geom step 0
    nrows_g=26 nrows=14 sparsity=7.3817 nnzs=4990, refcount: 7>
  <dData1D:(new from dSpData1D) n=4990, refcount: 1>
refcount: 1>
new_DM -- step:     1
Initializing Density Matrix...

Attempting to read DM from file... Failed...
DM filled with atomic data:
<dSpData2D:DM initialized from atoms
  <sparsity:sparsity for geom step 0
    nrows_g=26 nrows=14 sparsity=7.3817 nnzs=4990, refcount: 8>
  <dData2D:DM n=4990 m=1, refcount: 1>
refcount: 1>
No. of atoms with KB's overlaping orbs in proc 0. Max # of overlaps:       8      61

InitMesh: MESH = 48 x 48 x 48 = 110592
InitMesh: Mesh cutoff (required, used) =   300.000   389.861 Ry
New grid distribution [1]: sub = 2
New grid distribution [2]: sub = 2
New grid distribution [3]: sub = 2
Setting up quadratic distribution...

stepf: Fermi-Dirac step function

siesta: Program's energy decomposition (eV):
siesta: Ebs     =       -64.981764
siesta: Eions   =       444.480597
siesta: Ena     =       181.138495
siesta: Ekin    =        66.926276
siesta: Enl     =        33.624108
siesta: Eso     =         0.000000
siesta: Edftu   =         0.000000
siesta: DEna    =         8.769689
siesta: DUscf   =         0.288786
siesta: DUext   =         0.000000
siesta: Ex      =       -49.894017
siesta: Ec      =        -6.975738
siesta: Exc     =       -56.869756
siesta: EbV     =         0.000000
siesta: eta*DQ  =         0.000000
siesta: Emadel  =         0.000000
siesta: Emeta   =         0.000000
siesta: Emolmec =         0.000000
siesta: Ekinion =         0.000000
siesta: Eharris =      -215.663409
siesta: Etot    =      -210.602997
siesta: FreeEng =      -210.604947

        iscf     Eharris(eV)        E_KS(eV)     FreeEng(eV)     dDmax    Ef(eV) dHmax(eV)
   scf:    1     -215.663409     -210.602997     -210.604947  0.707244 -4.354502  0.500305
timer: Routine,Calls,Time,% = IterSCF        1       0.484  23.37
   scf:    2     -210.615095     -210.609149     -210.611043  0.010164 -4.435161  0.342855
   scf:    3     -210.619903     -210.614992     -210.616620  0.021391 -4.607143  0.005689
   scf:    4     -210.615008     -210.615000     -210.616626  0.000279 -4.606836  0.004368
   scf:    5     -210.615018     -210.615009     -210.616631  0.000462 -4.605932  0.002638
   scf:    6     -210.615012     -210.615011     -210.616631  0.000117 -4.605341  0.001780
   scf:    7     -210.615013     -210.615012     -210.616631  0.000181 -4.603988  0.001177
   scf:    8     -210.615011     -210.615012     -210.616631  0.000022 -4.603760  0.000790

SCF Convergence by DM+H criterion
max |DM_out - DM_in|         :     0.0000219127
max |H_out - H_in|      (eV) :     0.0007895963
SCF cycle converged after 8 iterations

Using DM_out to compute the final energy and forces
No. of atoms with KB's overlaping orbs in proc 0. Max # of overlaps:       8      61

siesta: E_KS(eV) =             -210.6150

siesta: E_KS - E_eggbox =      -210.6150

siesta: Atomic forces (eV/Ang):
----------------------------------------
   Tot    0.000000   -0.000000    0.000000
----------------------------------------
   Max    0.000035
   Res    0.000035    sqrt( Sum f_i^2 / 3N )
----------------------------------------
   Max    0.000035    constrained

Stress tensor Voigt[x,y,z,yz,xz,xy] (kbar):      116.26      116.26      116.26        0.00        0.00        0.00
(Free)E + p*V (eV/cell)     -216.8387
Target enthalpy (eV/cell)     -210.6166

siesta: Stress tensor (static) (eV/Ang**3):
         0.072561    0.000002    0.000002
         0.000002    0.072561    0.000002
         0.000002    0.000002    0.072561

siesta: Pressure (static):       -116.25566640  kBar

siesta: Stress tensor (total) (eV/Ang**3):
         0.072561    0.000002    0.000002
         0.000002    0.072561    0.000002
         0.000002    0.000002    0.072561

siesta: Pressure (total):       -116.25566640  kBar

cgvc: No target stress found, assuming hydrostatic MD.TargetPressure.

cgvc: Target stress (kBar)
cgvc:        -0.000       0.000       0.000
cgvc:         0.000      -0.000       0.000
cgvc:         0.000       0.000      -0.000

                     ====================================
                        Begin CG opt. move =      1
                     ====================================
k-point displ. along   1 input, could be:     0.00    0.50
k-point displ. along   2 input, could be:     0.00    0.50
k-point displ. along   3 input, could be:     0.00    0.50
 Kpoints in:          144 . Kpoints trimmed:          132

siesta: k-grid: Number of k-points = 132
siesta: k-points from Monkhorst-Pack grid
siesta: k-cutoff (effective) =    14.668 Ang
siesta: k-point supercell and displacements
siesta: k-grid:     6     0     0      0.000
siesta: k-grid:     0     6     0      0.000
siesta: k-grid:     0     0     6      0.000

superc: Internal auxiliary supercell:     3 x     3 x     3  =      27
superc: Number of atoms, orbitals, and projectors:     54    702    216

outcell: Unit cell vectors (Ang):
       -0.000002    3.457226    3.457226
        3.457226   -0.000002    3.457226
        3.457226    3.457226   -0.000002

outcell: Cell vector modules (Ang)   :    4.889256    4.889256    4.889256
outcell: Cell angles (23,13,12) (deg):     60.0000     60.0000     60.0000
outcell: Cell volume (Ang**3)        :     82.6445
<dSpData1D:S at geom step 1
  <sparsity:sparsity for geom step 1
    nrows_g=26 nrows=14 sparsity=7.4349 nnzs=5026, refcount: 7>
  <dData1D:(new from dSpData1D) n=5026, refcount: 1>
refcount: 1>
new_DM -- step:     2
Re-using DM from previous geometries...
Number of DMs in history: 1
 DM extrapolation coefficients: 
1   1.00000
New DM after history re-use:
<dSpData2D:SpM extrapolated using coords
  <sparsity:sparsity for geom step 1
    nrows_g=26 nrows=14 sparsity=7.4349 nnzs=5026, refcount: 9>
  <dData2D:(temp array for extrapolation) n=5026 m=1, refcount: 1>
refcount: 1>
Note: For starting DM, Qtot, Tr[D*S] =          8.00000000          8.07830929
No. of atoms with KB's overlaping orbs in proc 0. Max # of overlaps:       8      61

InitMesh: MESH = 48 x 48 x 48 = 110592
InitMesh: Mesh cutoff (required, used) =   300.000   399.567 Ry
New grid distribution [1]: sub = 2
New grid distribution [2]: sub = 2
New grid distribution [3]: sub = 2
Setting up quadratic distribution...

        iscf     Eharris(eV)        E_KS(eV)     FreeEng(eV)     dDmax    Ef(eV) dHmax(eV)
   scf:    1     -210.795845     -210.844960     -210.845791  0.024150 -4.622338  0.026287
   scf:    2     -210.844970     -210.844967     -210.845808  0.001384 -4.601981  0.004669
   scf:    3     -210.844972     -210.844969     -210.845808  0.000218 -4.604937  0.000147
   scf:    4     -210.844969     -210.844969     -210.845808  0.000011 -4.604906  0.000109

SCF Convergence by DM+H criterion
max |DM_out - DM_in|         :     0.0000109043
max |H_out - H_in|      (eV) :     0.0001094484
SCF cycle converged after 4 iterations

Using DM_out to compute the final energy and forces
No. of atoms with KB's overlaping orbs in proc 0. Max # of overlaps:       8      61

siesta: E_KS(eV) =             -210.8450

siesta: Atomic forces (eV/Ang):
----------------------------------------
   Tot   -0.000000    0.000000    0.000000
----------------------------------------
   Max    0.000037
   Res    0.000037    sqrt( Sum f_i^2 / 3N )
----------------------------------------
   Max    0.000037    constrained

Stress tensor Voigt[x,y,z,yz,xz,xy] (kbar):      120.17      120.17      120.17        0.00        0.00        0.00
(Free)E + p*V (eV/cell)     -217.0447
Target enthalpy (eV/cell)     -210.8458

siesta: Stress tensor (static) (eV/Ang**3):
         0.075007    0.000002    0.000002
         0.000002    0.075007    0.000002
         0.000002    0.000002    0.075007

siesta: Pressure (static):       -120.17397240  kBar

siesta: Stress tensor (total) (eV/Ang**3):
         0.075007    0.000002    0.000002
         0.000002    0.075007    0.000002
         0.000002    0.000002    0.075007

siesta: Pressure (total):       -120.17397240  kBar

                     ====================================
                        Begin CG opt. move =      2
                     ====================================
k-point displ. along   1 input, could be:     0.00    0.50
k-point displ. along   2 input, could be:     0.00    0.50
k-point displ. along   3 input, could be:     0.00    0.50
 Kpoints in:          144 . Kpoints trimmed:          132

siesta: k-grid: Number of k-points = 132
siesta: k-points from Monkhorst-Pack grid
siesta: k-cutoff (effective) =    14.377 Ang
siesta: k-point supercell and displacements
siesta: k-grid:     6     0     0      0.000
siesta: k-grid:     0     6     0      0.000
siesta: k-grid:     0     0     6      0.000

superc: Internal auxiliary supercell:     3 x     3 x     3  =      27
superc: Number of atoms, orbitals, and projectors:     54    702    216

outcell: Unit cell vectors (Ang):
       -0.000005    3.388788    3.388788
        3.388788   -0.000005    3.388788
        3.388788    3.388788   -0.000005

outcell: Cell vector modules (Ang)   :    4.792470    4.792470    4.792470
outcell: Cell angles (23,13,12) (deg):     60.0001     60.0001     60.0001
outcell: Cell volume (Ang**3)        :     77.8331
<dSpData1D:S at geom step 2
  <sparsity:sparsity for geom step 2
    nrows_g=26 nrows=14 sparsity=7.7544 nnzs=5242, refcount: 7>
  <dData1D:(new from dSpData1D) n=5242, refcount: 1>
refcount: 1>
new_DM -- step:     3
Re-using DM from previous geometries...
Number of DMs in history: 1
 DM extrapolation coefficients: 
1   1.00000
New DM after history re-use:
<dSpData2D:SpM extrapolated using coords
  <sparsity:sparsity for geom step 2
    nrows_g=26 nrows=14 sparsity=7.7544 nnzs=5242, refcount: 9>
  <dData2D:(temp array for extrapolation) n=5242 m=1, refcount: 1>
refcount: 1>
Note: For starting DM, Qtot, Tr[D*S] =          8.00000000          8.12783589
No. of atoms with KB's overlaping orbs in proc 0. Max # of overlaps:       8      61

InitMesh: MESH = 48 x 48 x 48 = 110592
InitMesh: Mesh cutoff (required, used) =   300.000   415.868 Ry
New grid distribution [1]: sub = 2
New grid distribution [2]: sub = 2
New grid distribution [3]: sub = 2
Setting up quadratic distribution...

        iscf     Eharris(eV)        E_KS(eV)     FreeEng(eV)     dDmax    Ef(eV) dHmax(eV)
   scf:    1     -211.118154     -211.214373     -211.215016  0.038896 -4.636248  0.042664
   scf:    2     -211.214405     -211.214395     -211.215063  0.002233 -4.604541  0.007732
   scf:    3     -211.214406     -211.214401     -211.215065  0.000357 -4.609259  0.000209
   scf:    4     -211.214401     -211.214401     -211.215065  0.000018 -4.609210  0.000155

SCF Convergence by DM+H criterion
max |DM_out - DM_in|         :     0.0000180067
max |H_out - H_in|      (eV) :     0.0001550519
SCF cycle converged after 4 iterations

Using DM_out to compute the final energy and forces
No. of atoms with KB's overlaping orbs in proc 0. Max # of overlaps:       8      61

siesta: E_KS(eV) =             -211.2144

siesta: Atomic forces (eV/Ang):
----------------------------------------
   Tot    0.000000    0.000000    0.000000
----------------------------------------
   Max    0.000001
   Res    0.000001    sqrt( Sum f_i^2 / 3N )
----------------------------------------
   Max    0.000001    constrained

Stress tensor Voigt[x,y,z,yz,xz,xy] (kbar):      125.87      125.87      125.87        0.00        0.00        0.00
(Free)E + p*V (eV/cell)     -217.3299
Target enthalpy (eV/cell)     -211.2151

siesta: Stress tensor (static) (eV/Ang**3):
         0.078563    0.000002    0.000002
         0.000002    0.078563    0.000002
         0.000002    0.000002    0.078563

siesta: Pressure (static):       -125.87174259  kBar

siesta: Stress tensor (total) (eV/Ang**3):
         0.078563    0.000002    0.000002
         0.000002    0.078563    0.000002
         0.000002    0.000002    0.078563

siesta: Pressure (total):       -125.87174259  kBar

                     ====================================
                        Begin CG opt. move =      3
                     ====================================
k-point displ. along   1 input, could be:     0.00    0.50
k-point displ. along   2 input, could be:     0.00    0.50
k-point displ. along   3 input, could be:     0.00    0.50
 Kpoints in:          144 . Kpoints trimmed:          132

siesta: k-grid: Number of k-points = 132
siesta: k-points from Monkhorst-Pack grid
siesta: k-cutoff (effective) =    14.063 Ang
siesta: k-point supercell and displacements
siesta: k-grid:     6     0     0      0.000
siesta: k-grid:     0     6     0      0.000
siesta: k-grid:     0     0     6      0.000

superc: Internal auxiliary supercell:     5 x     5 x     5  =     125
superc: Number of atoms, orbitals, and projectors:    250   3250   1000

outcell: Unit cell vectors (Ang):
       -0.000009    3.314701    3.314701
        3.314701   -0.000009    3.314701
        3.314701    3.314701   -0.000009

outcell: Cell vector modules (Ang)   :    4.687695    4.687695    4.687695
outcell: Cell angles (23,13,12) (deg):     60.0002     60.0002     60.0002
outcell: Cell volume (Ang**3)        :     72.8392
<dSpData1D:S at geom step 3
  <sparsity:sparsity for geom step 3
    nrows_g=26 nrows=14 sparsity=9.0148 nnzs=6094, refcount: 7>
  <dData1D:(new from dSpData1D) n=6094, refcount: 1>
refcount: 1>
new_DM -- step:     4
Re-using DM from previous geometries...
Number of DMs in history: 1
 DM extrapolation coefficients: 
1   1.00000
New DM after history re-use:
<dSpData2D:SpM extrapolated using coords
  <sparsity:sparsity for geom step 3
    nrows_g=26 nrows=14 sparsity=9.0148 nnzs=6094, refcount: 9>
  <dData2D:(temp array for extrapolation) n=6094 m=1, refcount: 1>
refcount: 1>
Note: For starting DM, Qtot, Tr[D*S] =          8.00000000          8.14208443
No. of atoms with KB's overlaping orbs in proc 0. Max # of overlaps:       8      65

InitMesh: MESH = 40 x 40 x 40 = 64000
InitMesh: Mesh cutoff (required, used) =   300.000   301.851 Ry
New grid distribution [1]: sub = 2
New grid distribution [2]: sub = 2
New grid distribution [3]: sub = 2
Setting up quadratic distribution...

        iscf     Eharris(eV)        E_KS(eV)     FreeEng(eV)     dDmax    Ef(eV) dHmax(eV)
   scf:    1     -211.485908     -211.615757     -211.616092  0.044439 -4.545063  0.047605
   scf:    2     -211.615862     -211.615817     -211.616151  0.002354 -4.510831  0.008240
   scf:    3     -211.615822     -211.615820     -211.616154  0.000366 -4.515710  0.000237
   scf:    4     -211.615820     -211.615820     -211.616154  0.000024 -4.515649  0.000177

SCF Convergence by DM+H criterion
max |DM_out - DM_in|         :     0.0000238647
max |H_out - H_in|      (eV) :     0.0001772175
SCF cycle converged after 4 iterations

Using DM_out to compute the final energy and forces
No. of atoms with KB's overlaping orbs in proc 0. Max # of overlaps:       8      65

siesta: E_KS(eV) =             -211.6158

siesta: Atomic forces (eV/Ang):
----------------------------------------
   Tot   -0.000000   -0.000000   -0.000000
----------------------------------------
   Max    0.000087
   Res    0.000087    sqrt( Sum f_i^2 / 3N )
----------------------------------------
   Max    0.000087    constrained

Stress tensor Voigt[x,y,z,yz,xz,xy] (kbar):      131.47      131.47      131.47        0.00        0.00        0.00
(Free)E + p*V (eV/cell)     -217.5930
Target enthalpy (eV/cell)     -211.6162

siesta: Stress tensor (static) (eV/Ang**3):
         0.082056    0.000003    0.000003
         0.000003    0.082056    0.000003
         0.000003    0.000003    0.082056

siesta: Pressure (static):       -131.46830420  kBar

siesta: Stress tensor (total) (eV/Ang**3):
         0.082056    0.000003    0.000003
         0.000003    0.082056    0.000003
         0.000003    0.000003    0.082056

siesta: Pressure (total):       -131.46830420  kBar

                     ====================================
                        Begin CG opt. move =      4
                     ====================================
k-point displ. along   1 input, could be:     0.00    0.50
k-point displ. along   2 input, could be:     0.00    0.50
k-point displ. along   3 input, could be:     0.00    0.50
 Kpoints in:          144 . Kpoints trimmed:          132

siesta: k-grid: Number of k-points = 132
siesta: k-points from Monkhorst-Pack grid
siesta: k-cutoff (effective) =    13.749 Ang
siesta: k-point supercell and displacements
siesta: k-grid:     6     0     0      0.000
siesta: k-grid:     0     6     0      0.000
siesta: k-grid:     0     0     6      0.000

superc: Internal auxiliary supercell:     5 x     5 x     5  =     125
superc: Number of atoms, orbitals, and projectors:    250   3250   1000

outcell: Unit cell vectors (Ang):
       -0.000013    3.240615    3.240615
        3.240615   -0.000013    3.240615
        3.240615    3.240615   -0.000013

outcell: Cell vector modules (Ang)   :    4.582921    4.582921    4.582921
outcell: Cell angles (23,13,12) (deg):     60.0003     60.0003     60.0003
outcell: Cell volume (Ang**3)        :     68.0636
<dSpData1D:S at geom step 4
  <sparsity:sparsity for geom step 4
    nrows_g=26 nrows=14 sparsity=9.1746 nnzs=6202, refcount: 7>
  <dData1D:(new from dSpData1D) n=6202, refcount: 1>
refcount: 1>
new_DM -- step:     5
Re-using DM from previous geometries...
Number of DMs in history: 1
 DM extrapolation coefficients: 
1   1.00000
New DM after history re-use:
<dSpData2D:SpM extrapolated using coords
  <sparsity:sparsity for geom step 4
    nrows_g=26 nrows=14 sparsity=9.1746 nnzs=6202, refcount: 9>
  <dData2D:(temp array for extrapolation) n=6202 m=1, refcount: 1>
refcount: 1>
Note: For starting DM, Qtot, Tr[D*S] =          8.00000000          8.14612771
No. of atoms with KB's overlaping orbs in proc 0. Max # of overlaps:       8      65

InitMesh: MESH = 40 x 40 x 40 = 64000
InitMesh: Mesh cutoff (required, used) =   300.000   315.810 Ry
New grid distribution [1]: sub = 2
New grid distribution [2]: sub = 2
New grid distribution [3]: sub = 2
Setting up quadratic distribution...

        iscf     Eharris(eV)        E_KS(eV)     FreeEng(eV)     dDmax    Ef(eV) dHmax(eV)
   scf:    1     -211.855316     -212.014400     -212.014746  0.054078 -4.452977  0.054974
   scf:    2     -212.014491     -212.014455     -212.014828  0.002587 -4.408866  0.009471
   scf:    3     -212.014470     -212.014463     -212.014832  0.000405 -4.415146  0.000298
   scf:    4     -212.014463     -212.014463     -212.014832  0.000030 -4.415079  0.000222

SCF Convergence by DM+H criterion
max |DM_out - DM_in|         :     0.0000298317
max |H_out - H_in|      (eV) :     0.0002223791
SCF cycle converged after 4 iterations

Using DM_out to compute the final energy and forces
No. of atoms with KB's overlaping orbs in proc 0. Max # of overlaps:       8      65

siesta: E_KS(eV) =             -212.0145

siesta: Atomic forces (eV/Ang):
----------------------------------------
   Tot   -0.000000   -0.000000   -0.000000
----------------------------------------
   Max    0.000005
   Res    0.000005    sqrt( Sum f_i^2 / 3N )
----------------------------------------
   Max    0.000005    constrained

Stress tensor Voigt[x,y,z,yz,xz,xy] (kbar):      136.19      136.19      136.19        0.01        0.01        0.01
(Free)E + p*V (eV/cell)     -217.8006
Target enthalpy (eV/cell)     -212.0148

siesta: Stress tensor (static) (eV/Ang**3):
         0.085005    0.000003    0.000003
         0.000003    0.085005    0.000003
         0.000003    0.000003    0.085005

siesta: Pressure (static):       -136.19253243  kBar

siesta: Stress tensor (total) (eV/Ang**3):
         0.085005    0.000003    0.000003
         0.000003    0.085005    0.000003
         0.000003    0.000003    0.085005

siesta: Pressure (total):       -136.19253243  kBar

                     ====================================
                        Begin CG opt. move =      5
                     ====================================
k-point displ. along   1 input, could be:     0.00    0.50
k-point displ. along   2 input, could be:     0.00    0.50
k-point displ. along   3 input, could be:     0.00    0.50
 Kpoints in:          144 . Kpoints trimmed:          132

siesta: k-grid: Number of k-points = 132
siesta: k-points from Monkhorst-Pack grid
siesta: k-cutoff (effective) =    13.434 Ang
siesta: k-point supercell and displacements
siesta: k-grid:     6     0     0      0.000
siesta: k-grid:     0     6     0      0.000
siesta: k-grid:     0     0     6      0.000

superc: Internal auxiliary supercell:     5 x     5 x     5  =     125
superc: Number of atoms, orbitals, and projectors:    250   3250   1000

outcell: Unit cell vectors (Ang):
       -0.000016    3.166528    3.166528
        3.166528   -0.000016    3.166528
        3.166528    3.166528   -0.000016

outcell: Cell vector modules (Ang)   :    4.478147    4.478147    4.478147
outcell: Cell angles (23,13,12) (deg):     60.0003     60.0003     60.0003
outcell: Cell volume (Ang**3)        :     63.5014
<dSpData1D:S at geom step 5
  <sparsity:sparsity for geom step 5
    nrows_g=26 nrows=14 sparsity=9.3876 nnzs=6346, refcount: 7>
  <dData1D:(new from dSpData1D) n=6346, refcount: 1>
refcount: 1>
new_DM -- step:     6
Re-using DM from previous geometries...
Number of DMs in history: 1
 DM extrapolation coefficients: 
1   1.00000
New DM after history re-use:
<dSpData2D:SpM extrapolated using coords
  <sparsity:sparsity for geom step 5
    nrows_g=26 nrows=14 sparsity=9.3876 nnzs=6346, refcount: 9>
  <dData2D:(temp array for extrapolation) n=6346 m=1, refcount: 1>
refcount: 1>
Note: For starting DM, Qtot, Tr[D*S] =          8.00000000          8.15047952
No. of atoms with KB's overlaping orbs in proc 0. Max # of overlaps:       8      65

InitMesh: MESH = 40 x 40 x 40 = 64000
InitMesh: Mesh cutoff (required, used) =   300.000   330.760 Ry
New grid distribution [1]: sub = 2
New grid distribution [2]: sub = 2
New grid distribution [3]: sub = 2
Setting up quadratic distribution...

        iscf     Eharris(eV)        E_KS(eV)     FreeEng(eV)     dDmax    Ef(eV) dHmax(eV)
   scf:    1     -212.218935     -212.406333     -212.406562  0.056652 -4.451301  0.053094
   scf:    2     -212.406476     -212.406414     -212.406643  0.002375 -4.406621  0.008959
   scf:    3     -212.406420     -212.406417     -212.406646  0.000366 -4.412903  0.000282
   scf:    4     -212.406417     -212.406417     -212.406646  0.000029 -4.412851  0.000212

SCF Convergence by DM+H criterion
max |DM_out - DM_in|         :     0.0000291042
max |H_out - H_in|      (eV) :     0.0002124540
SCF cycle converged after 4 iterations

Using DM_out to compute the final energy and forces
No. of atoms with KB's overlaping orbs in proc 0. Max # of overlaps:       8      65

siesta: E_KS(eV) =             -212.4064

siesta: Atomic forces (eV/Ang):
----------------------------------------
   Tot    0.000000    0.000000   -0.000000
----------------------------------------
   Max    0.000055
   Res    0.000055    sqrt( Sum f_i^2 / 3N )
----------------------------------------
   Max    0.000055    constrained

Stress tensor Voigt[x,y,z,yz,xz,xy] (kbar):      138.40      138.40      138.40        0.01        0.01        0.01
(Free)E + p*V (eV/cell)     -217.8922
Target enthalpy (eV/cell)     -212.4066

siesta: Stress tensor (static) (eV/Ang**3):
         0.086385    0.000003    0.000003
         0.000003    0.086385    0.000003
         0.000003    0.000003    0.086385

siesta: Pressure (static):       -138.40384213  kBar

siesta: Stress tensor (total) (eV/Ang**3):
         0.086385    0.000003    0.000003
         0.000003    0.086385    0.000003
         0.000003    0.000003    0.086385

siesta: Pressure (total):       -138.40384213  kBar

                     ====================================
                        Begin CG opt. move =      6
                     ====================================
k-point displ. along   1 input, could be:     0.00    0.50
k-point displ. along   2 input, could be:     0.00    0.50
k-point displ. along   3 input, could be:     0.00    0.50
 Kpoints in:          144 . Kpoints trimmed:          132

siesta: k-grid: Number of k-points = 132
siesta: k-points from Monkhorst-Pack grid
siesta: k-cutoff (effective) =    13.120 Ang
siesta: k-point supercell and displacements
siesta: k-grid:     6     0     0      0.000
siesta: k-grid:     0     6     0      0.000
siesta: k-grid:     0     0     6      0.000

superc: Internal auxiliary supercell:     5 x     5 x     5  =     125
superc: Number of atoms, orbitals, and projectors:    250   3250   1000

outcell: Unit cell vectors (Ang):
       -0.000020    3.092441    3.092441
        3.092441   -0.000020    3.092441
        3.092441    3.092441   -0.000020

outcell: Cell vector modules (Ang)   :    4.373373    4.373373    4.373373
outcell: Cell angles (23,13,12) (deg):     60.0004     60.0004     60.0004
outcell: Cell volume (Ang**3)        :     59.1478
<dSpData1D:S at geom step 6
  <sparsity:sparsity for geom step 6
    nrows_g=26 nrows=14 sparsity=14.9438 nnzs=10102, refcount: 7>
  <dData1D:(new from dSpData1D) n=10102, refcount: 1>
refcount: 1>
new_DM -- step:     7
Re-using DM from previous geometries...
Number of DMs in history: 1
 DM extrapolation coefficients: 
1   1.00000
New DM after history re-use:
<dSpData2D:SpM extrapolated using coords
  <sparsity:sparsity for geom step 6
    nrows_g=26 nrows=14 sparsity=14.9438 nnzs=10102, refcount: 9>
  <dData2D:(temp array for extrapolation) n=10102 m=1, refcount: 1>
refcount: 1>
Note: For starting DM, Qtot, Tr[D*S] =          8.00000000          8.15515876
No. of atoms with KB's overlaping orbs in proc 0. Max # of overlaps:      17     161

InitMesh: MESH = 40 x 40 x 40 = 64000
InitMesh: Mesh cutoff (required, used) =   300.000   346.797 Ry
New grid distribution [1]: sub = 2
New grid distribution [2]: sub = 2
New grid distribution [3]: sub = 2
Setting up quadratic distribution...

        iscf     Eharris(eV)        E_KS(eV)     FreeEng(eV)     dDmax    Ef(eV) dHmax(eV)
   scf:    1     -212.564457     -212.781052     -212.781281  0.061497 -4.461044  0.054702
   scf:    2     -212.781213     -212.781144     -212.781372  0.002524 -4.414262  0.009208
   scf:    3     -212.781150     -212.781147     -212.781376  0.000348 -4.420846  0.000296
   scf:    4     -212.781147     -212.781147     -212.781376  0.000030 -4.420796  0.000224

SCF Convergence by DM+H criterion
max |DM_out - DM_in|         :     0.0000301819
max |H_out - H_in|      (eV) :     0.0002241390
SCF cycle converged after 4 iterations

Using DM_out to compute the final energy and forces
No. of atoms with KB's overlaping orbs in proc 0. Max # of overlaps:      17     161

siesta: E_KS(eV) =             -212.7811

siesta: Atomic forces (eV/Ang):
----------------------------------------
   Tot   -0.000000   -0.000000   -0.000000
----------------------------------------
   Max    0.000106
   Res    0.000106    sqrt( Sum f_i^2 / 3N )
----------------------------------------
   Max    0.000106    constrained

Stress tensor Voigt[x,y,z,yz,xz,xy] (kbar):      136.51      136.51      136.51        0.00        0.00        0.00
(Free)E + p*V (eV/cell)     -217.8211
Target enthalpy (eV/cell)     -212.7814

siesta: Stress tensor (static) (eV/Ang**3):
         0.085205    0.000002    0.000002
         0.000002    0.085205    0.000002
         0.000002    0.000002    0.085205

siesta: Pressure (static):       -136.51372947  kBar

siesta: Stress tensor (total) (eV/Ang**3):
         0.085205    0.000002    0.000002
         0.000002    0.085205    0.000002
         0.000002    0.000002    0.085205

siesta: Pressure (total):       -136.51372947  kBar

                     ====================================
                        Begin CG opt. move =      7
                     ====================================
k-point displ. along   1 input, could be:     0.00    0.50
k-point displ. along   2 input, could be:     0.00    0.50
k-point displ. along   3 input, could be:     0.00    0.50
 Kpoints in:          144 . Kpoints trimmed:          132

siesta: k-grid: Number of k-points = 132
siesta: k-points from Monkhorst-Pack grid
siesta: k-cutoff (effective) =    12.806 Ang
siesta: k-point supercell and displacements
siesta: k-grid:     6     0     0      0.000
siesta: k-grid:     0     6     0      0.000
siesta: k-grid:     0     0     6      0.000

superc: Internal auxiliary supercell:     5 x     5 x     5  =     125
superc: Number of atoms, orbitals, and projectors:    250   3250   1000

outcell: Unit cell vectors (Ang):
       -0.000024    3.018355    3.018355
        3.018355   -0.000024    3.018355
        3.018355    3.018355   -0.000024

outcell: Cell vector modules (Ang)   :    4.268598    4.268598    4.268598
outcell: Cell angles (23,13,12) (deg):     60.0005     60.0005     60.0005
outcell: Cell volume (Ang**3)        :     54.9979
<dSpData1D:S at geom step 7
  <sparsity:sparsity for geom step 7
    nrows_g=26 nrows=14 sparsity=14.9438 nnzs=10102, refcount: 7>
  <dData1D:(new from dSpData1D) n=10102, refcount: 1>
refcount: 1>
new_DM -- step:     8
Re-using DM from previous geometries...
Number of DMs in history: 1
 DM extrapolation coefficients: 
1   1.00000
New DM after history re-use:
<dSpData2D:SpM extrapolated using coords
  <sparsity:sparsity for geom step 7
    nrows_g=26 nrows=14 sparsity=14.9438 nnzs=10102, refcount: 9>
  <dData2D:(temp array for extrapolation) n=10102 m=1, refcount: 1>
refcount: 1>
Note: For starting DM, Qtot, Tr[D*S] =          8.00000000          8.15985850
No. of atoms with KB's overlaping orbs in proc 0. Max # of overlaps:      17     161

InitMesh: MESH = 40 x 40 x 40 = 64000
InitMesh: Mesh cutoff (required, used) =   300.000   364.030 Ry
New grid distribution [1]: sub = 2
New grid distribution [2]: sub = 2
New grid distribution [3]: sub = 2
Setting up quadratic distribution...

        iscf     Eharris(eV)        E_KS(eV)     FreeEng(eV)     dDmax    Ef(eV) dHmax(eV)
   scf:    1     -212.881653     -213.126861     -213.126863  0.080522 -4.372230  0.054328
   scf:    2     -213.127026     -213.126954     -213.126956  0.003322 -4.322531  0.008904
   scf:    3     -213.126961     -213.126958     -213.126960  0.000418 -4.329389  0.000348
   scf:    4     -213.126958     -213.126958     -213.126960  0.000032 -4.329368  0.000265

SCF Convergence by DM+H criterion
max |DM_out - DM_in|         :     0.0000319105
max |H_out - H_in|      (eV) :     0.0002647479
SCF cycle converged after 4 iterations

Using DM_out to compute the final energy and forces
No. of atoms with KB's overlaping orbs in proc 0. Max # of overlaps:      17     161

siesta: E_KS(eV) =             -213.1270

siesta: Atomic forces (eV/Ang):
----------------------------------------
   Tot    0.000000    0.000000   -0.000000
----------------------------------------
   Max    0.000529
   Res    0.000529    sqrt( Sum f_i^2 / 3N )
----------------------------------------
   Max    0.000529    constrained

Stress tensor Voigt[x,y,z,yz,xz,xy] (kbar):      129.90      129.90      129.90       -0.00       -0.00       -0.00
(Free)E + p*V (eV/cell)     -217.5859
Target enthalpy (eV/cell)     -213.1270

siesta: Stress tensor (static) (eV/Ang**3):
         0.081075   -0.000001   -0.000001
        -0.000001    0.081075   -0.000001
        -0.000001   -0.000001    0.081075

siesta: Pressure (static):       -129.89671571  kBar

siesta: Stress tensor (total) (eV/Ang**3):
         0.081075   -0.000001   -0.000001
        -0.000001    0.081075   -0.000001
        -0.000001   -0.000001    0.081075

siesta: Pressure (total):       -129.89671571  kBar

                     ====================================
                        Begin CG opt. move =      8
                     ====================================
k-point displ. along   1 input, could be:     0.00    0.50
k-point displ. along   2 input, could be:     0.00    0.50
k-point displ. along   3 input, could be:     0.00    0.50
 Kpoints in:          144 . Kpoints trimmed:          132

siesta: k-grid: Number of k-points = 132
siesta: k-points from Monkhorst-Pack grid
siesta: k-cutoff (effective) =    12.491 Ang
siesta: k-point supercell and displacements
siesta: k-grid:     6     0     0      0.000
siesta: k-grid:     0     6     0      0.000
siesta: k-grid:     0     0     6      0.000

superc: Internal auxiliary supercell:     5 x     5 x     5  =     125
superc: Number of atoms, orbitals, and projectors:    250   3250   1000

outcell: Unit cell vectors (Ang):
       -0.000027    2.944268    2.944268
        2.944268   -0.000027    2.944268
        2.944268    2.944268   -0.000027

outcell: Cell vector modules (Ang)   :    4.163824    4.163824    4.163824
outcell: Cell angles (23,13,12) (deg):     60.0006     60.0006     60.0006
outcell: Cell volume (Ang**3)        :     51.0468
<dSpData1D:S at geom step 8
  <sparsity:sparsity for geom step 8
    nrows_g=26 nrows=14 sparsity=14.9970 nnzs=10138, refcount: 7>
  <dData1D:(new from dSpData1D) n=10138, refcount: 1>
refcount: 1>
new_DM -- step:     9
Re-using DM from previous geometries...
Number of DMs in history: 1
 DM extrapolation coefficients: 
1   1.00000
New DM after history re-use:
<dSpData2D:SpM extrapolated using coords
  <sparsity:sparsity for geom step 8
    nrows_g=26 nrows=14 sparsity=14.9970 nnzs=10138, refcount: 9>
  <dData2D:(temp array for extrapolation) n=10138 m=1, refcount: 1>
refcount: 1>
Note: For starting DM, Qtot, Tr[D*S] =          8.00000000          8.16475256
No. of atoms with KB's overlaping orbs in proc 0. Max # of overlaps:      17     161

InitMesh: MESH = 36 x 36 x 36 = 46656
InitMesh: Mesh cutoff (required, used) =   300.000   309.889 Ry
New grid distribution [1]: sub = 2
New grid distribution [2]: sub = 2
New grid distribution [3]: sub = 2
Setting up quadratic distribution...

        iscf     Eharris(eV)        E_KS(eV)     FreeEng(eV)     dDmax    Ef(eV) dHmax(eV)
   scf:    1     -213.149630     -213.427658     -213.427658  0.077843 -4.207023  0.056519
   scf:    2     -213.427857     -213.427772     -213.427772  0.004385 -4.162843  0.009624
   scf:    3     -213.427780     -213.427776     -213.427776  0.000595 -4.169131  0.000331
   scf:    4     -213.427776     -213.427776     -213.427776  0.000028 -4.169086  0.000253

SCF Convergence by DM+H criterion
max |DM_out - DM_in|         :     0.0000276537
max |H_out - H_in|      (eV) :     0.0002525615
SCF cycle converged after 4 iterations

Using DM_out to compute the final energy and forces
No. of atoms with KB's overlaping orbs in proc 0. Max # of overlaps:      17     161

siesta: E_KS(eV) =             -213.4278

siesta: Atomic forces (eV/Ang):
----------------------------------------
   Tot   -0.000000   -0.000000   -0.000000
----------------------------------------
   Max    0.000700
   Res    0.000700    sqrt( Sum f_i^2 / 3N )
----------------------------------------
   Max    0.000700    constrained

Stress tensor Voigt[x,y,z,yz,xz,xy] (kbar):      111.95      111.95      111.95       -0.01       -0.01       -0.01
(Free)E + p*V (eV/cell)     -216.9945
Target enthalpy (eV/cell)     -213.4278

siesta: Stress tensor (static) (eV/Ang**3):
         0.069873   -0.000004   -0.000004
        -0.000004    0.069873   -0.000004
        -0.000004   -0.000004    0.069873

siesta: Pressure (static):       -111.94823696  kBar

siesta: Stress tensor (total) (eV/Ang**3):
         0.069873   -0.000004   -0.000004
        -0.000004    0.069873   -0.000004
        -0.000004   -0.000004    0.069873

siesta: Pressure (total):       -111.94823696  kBar

                     ====================================
                        Begin CG opt. move =      9
                     ====================================
k-point displ. along   1 input, could be:     0.00    0.50
k-point displ. along   2 input, could be:     0.00    0.50
k-point displ. along   3 input, could be:     0.00    0.50
 Kpoints in:          144 . Kpoints trimmed:          132

siesta: k-grid: Number of k-points = 132
siesta: k-points from Monkhorst-Pack grid
siesta: k-cutoff (effective) =    12.177 Ang
siesta: k-point supercell and displacements
siesta: k-grid:     6     0     0      0.000
siesta: k-grid:     0     6     0      0.000
siesta: k-grid:     0     0     6      0.000

superc: Internal auxiliary supercell:     5 x     5 x     5  =     125
superc: Number of atoms, orbitals, and projectors:    250   3250   1000

outcell: Unit cell vectors (Ang):
       -0.000031    2.870182    2.870182
        2.870182   -0.000031    2.870182
        2.870182    2.870182   -0.000031

outcell: Cell vector modules (Ang)   :    4.059050    4.059050    4.059050
outcell: Cell angles (23,13,12) (deg):     60.0007     60.0007     60.0007
outcell: Cell volume (Ang**3)        :     47.2895
<dSpData1D:S at geom step 9
  <sparsity:sparsity for geom step 9
    nrows_g=26 nrows=14 sparsity=14.9970 nnzs=10138, refcount: 7>
  <dData1D:(new from dSpData1D) n=10138, refcount: 1>
refcount: 1>
new_DM -- step:    10
Re-using DM from previous geometries...
Number of DMs in history: 1
 DM extrapolation coefficients: 
1   1.00000
New DM after history re-use:
<dSpData2D:SpM extrapolated using coords
  <sparsity:sparsity for geom step 9
    nrows_g=26 nrows=14 sparsity=14.9970 nnzs=10138, refcount: 9>
  <dData2D:(temp array for extrapolation) n=10138 m=1, refcount: 1>
refcount: 1>
Note: For starting DM, Qtot, Tr[D*S] =          8.00000000          8.16661849
No. of atoms with KB's overlaping orbs in proc 0. Max # of overlaps:      17     161

InitMesh: MESH = 36 x 36 x 36 = 46656
InitMesh: Mesh cutoff (required, used) =   300.000   326.093 Ry
New grid distribution [1]: sub = 2
New grid distribution [2]: sub = 2
New grid distribution [3]: sub = 2
Setting up quadratic distribution...

        iscf     Eharris(eV)        E_KS(eV)     FreeEng(eV)     dDmax    Ef(eV) dHmax(eV)
   scf:    1     -213.330517     -213.657491     -213.657491  0.087048 -3.934799  0.058304
   scf:    2     -213.657726     -213.657625     -213.657625  0.005696 -3.888419  0.010317
   scf:    3     -213.657636     -213.657631     -213.657631  0.000818 -3.895246  0.000326
   scf:    4     -213.657631     -213.657631     -213.657631  0.000022 -3.895207  0.000248

SCF Convergence by DM+H criterion
max |DM_out - DM_in|         :     0.0000218729
max |H_out - H_in|      (eV) :     0.0002481989
SCF cycle converged after 4 iterations

Using DM_out to compute the final energy and forces
No. of atoms with KB's overlaping orbs in proc 0. Max # of overlaps:      17     161

siesta: E_KS(eV) =             -213.6576

siesta: Atomic forces (eV/Ang):
----------------------------------------
   Tot    0.000000    0.000000   -0.000000
----------------------------------------
   Max    0.000920
   Res    0.000920    sqrt( Sum f_i^2 / 3N )
----------------------------------------
   Max    0.000920    constrained

Stress tensor Voigt[x,y,z,yz,xz,xy] (kbar):       81.43       81.43       81.43       -0.02       -0.02       -0.02
(Free)E + p*V (eV/cell)     -216.0610
Target enthalpy (eV/cell)     -213.6576

siesta: Stress tensor (static) (eV/Ang**3):
         0.050823   -0.000010   -0.000010
        -0.000010    0.050823   -0.000010
        -0.000010   -0.000010    0.050823

siesta: Pressure (static):        -81.42794300  kBar

siesta: Stress tensor (total) (eV/Ang**3):
         0.050823   -0.000010   -0.000010
        -0.000010    0.050823   -0.000010
        -0.000010   -0.000010    0.050823

siesta: Pressure (total):        -81.42794300  kBar

                     ====================================
                        Begin CG opt. move =     10
                     ====================================
k-point displ. along   1 input, could be:     0.00    0.50
k-point displ. along   2 input, could be:     0.00    0.50
k-point displ. along   3 input, could be:     0.00    0.50
 Kpoints in:          144 . Kpoints trimmed:          132

siesta: k-grid: Number of k-points = 132
siesta: k-points from Monkhorst-Pack grid
siesta: k-cutoff (effective) =    11.863 Ang
siesta: k-point supercell and displacements
siesta: k-grid:     6     0     0      0.000
siesta: k-grid:     0     6     0      0.000
siesta: k-grid:     0     0     6      0.000

superc: Internal auxiliary supercell:     5 x     5 x     5  =     125
superc: Number of atoms, orbitals, and projectors:    250   3250   1000

outcell: Unit cell vectors (Ang):
       -0.000035    2.796095    2.796095
        2.796095   -0.000035    2.796095
        2.796095    2.796095   -0.000035

outcell: Cell vector modules (Ang)   :    3.954276    3.954276    3.954276
outcell: Cell angles (23,13,12) (deg):     60.0008     60.0008     60.0008
outcell: Cell volume (Ang**3)        :     43.7214
<dSpData1D:S at geom step 10
  <sparsity:sparsity for geom step 10
    nrows_g=26 nrows=14 sparsity=15.2633 nnzs=10318, refcount: 7>
  <dData1D:(new from dSpData1D) n=10318, refcount: 1>
refcount: 1>
new_DM -- step:    11
Re-using DM from previous geometries...
Number of DMs in history: 1
 DM extrapolation coefficients: 
1   1.00000
New DM after history re-use:
<dSpData2D:SpM extrapolated using coords
  <sparsity:sparsity for geom step 10
    nrows_g=26 nrows=14 sparsity=15.2633 nnzs=10318, refcount: 9>
  <dData2D:(temp array for extrapolation) n=10318 m=1, refcount: 1>
refcount: 1>
Note: For starting DM, Qtot, Tr[D*S] =          8.00000000          8.16717719
No. of atoms with KB's overlaping orbs in proc 0. Max # of overlaps:      17     161

InitMesh: MESH = 36 x 36 x 36 = 46656
InitMesh: Mesh cutoff (required, used) =   300.000   343.602 Ry
New grid distribution [1]: sub = 2
New grid distribution [2]: sub = 2
New grid distribution [3]: sub = 2
Setting up quadratic distribution...

        iscf     Eharris(eV)        E_KS(eV)     FreeEng(eV)     dDmax    Ef(eV) dHmax(eV)
   scf:    1     -213.399886     -213.790733     -213.790733  0.088990 -4.072525  0.059646
   scf:    2     -213.791006     -213.790889     -213.790889  0.007168 -4.023889  0.011001
   scf:    3     -213.790902     -213.790896     -213.790896  0.001081 -4.031285  0.000319
   scf:    4     -213.790896     -213.790896     -213.790896  0.000016 -4.031244  0.000243

SCF Convergence by DM+H criterion
max |DM_out - DM_in|         :     0.0000162762
max |H_out - H_in|      (eV) :     0.0002432155
SCF cycle converged after 4 iterations

Using DM_out to compute the final energy and forces
No. of atoms with KB's overlaping orbs in proc 0. Max # of overlaps:      17     161

siesta: E_KS(eV) =             -213.7909

siesta: Atomic forces (eV/Ang):
----------------------------------------
   Tot    0.000000    0.000000   -0.000000
----------------------------------------
   Max    0.001194
   Res    0.001194    sqrt( Sum f_i^2 / 3N )
----------------------------------------
   Max    0.001194    constrained

Stress tensor Voigt[x,y,z,yz,xz,xy] (kbar):       34.51       34.51       34.51       -0.03       -0.03       -0.03
(Free)E + p*V (eV/cell)     -214.7326
Target enthalpy (eV/cell)     -213.7909

siesta: Stress tensor (static) (eV/Ang**3):
         0.021538   -0.000020   -0.000020
        -0.000020    0.021538   -0.000020
        -0.000020   -0.000020    0.021538

siesta: Pressure (static):        -34.50844905  kBar

siesta: Stress tensor (total) (eV/Ang**3):
         0.021538   -0.000020   -0.000020
        -0.000020    0.021538   -0.000020
        -0.000020   -0.000020    0.021538

siesta: Pressure (total):        -34.50844905  kBar

                     ====================================
                        Begin CG opt. move =     11
                     ====================================
k-point displ. along   1 input, could be:     0.00    0.50
k-point displ. along   2 input, could be:     0.00    0.50
k-point displ. along   3 input, could be:     0.00    0.50
 Kpoints in:          144 . Kpoints trimmed:          132

siesta: k-grid: Number of k-points = 132
siesta: k-points from Monkhorst-Pack grid
siesta: k-cutoff (effective) =    11.549 Ang
siesta: k-point supercell and displacements
siesta: k-grid:     6     0     0      0.000
siesta: k-grid:     0     6     0      0.000
siesta: k-grid:     0     0     6      0.000

superc: Internal auxiliary supercell:     5 x     5 x     5  =     125
superc: Number of atoms, orbitals, and projectors:    250   3250   1000

outcell: Unit cell vectors (Ang):
       -0.000038    2.722008    2.722008
        2.722008   -0.000038    2.722008
        2.722008    2.722008   -0.000038

outcell: Cell vector modules (Ang)   :    3.849501    3.849501    3.849501
outcell: Cell angles (23,13,12) (deg):     60.0009     60.0009     60.0009
outcell: Cell volume (Ang**3)        :     40.3374
<dSpData1D:S at geom step 11
  <sparsity:sparsity for geom step 11
    nrows_g=26 nrows=14 sparsity=16.8580 nnzs=11396, refcount: 7>
  <dData1D:(new from dSpData1D) n=11396, refcount: 1>
refcount: 1>
new_DM -- step:    12
Re-using DM from previous geometries...
Number of DMs in history: 1
 DM extrapolation coefficients: 
1   1.00000
New DM after history re-use:
<dSpData2D:SpM extrapolated using coords
  <sparsity:sparsity for geom step 11
    nrows_g=26 nrows=14 sparsity=16.8580 nnzs=11396, refcount: 9>
  <dData2D:(temp array for extrapolation) n=11396 m=1, refcount: 1>
refcount: 1>
Note: For starting DM, Qtot, Tr[D*S] =          8.00000000          8.16702061
No. of atoms with KB's overlaping orbs in proc 0. Max # of overlaps:      17     161

InitMesh: MESH = 36 x 36 x 36 = 46656
InitMesh: Mesh cutoff (required, used) =   300.000   362.559 Ry
New grid distribution [1]: sub = 2
New grid distribution [2]: sub = 2
New grid distribution [3]: sub = 2
Setting up quadratic distribution...

        iscf     Eharris(eV)        E_KS(eV)     FreeEng(eV)     dDmax    Ef(eV) dHmax(eV)
   scf:    1     -213.326497     -213.795380     -213.795380  0.081236 -4.016846  0.059613
   scf:    2     -213.795679     -213.795552     -213.795552  0.008484 -3.966800  0.011362
   scf:    3     -213.795567     -213.795561     -213.795561  0.001319 -3.974567  0.000330
   scf:    4     -213.795561     -213.795561     -213.795561  0.000014 -3.974509  0.000252

SCF Convergence by DM+H criterion
max |DM_out - DM_in|         :     0.0000137437
max |H_out - H_in|      (eV) :     0.0002519442
SCF cycle converged after 4 iterations

Using DM_out to compute the final energy and forces
No. of atoms with KB's overlaping orbs in proc 0. Max # of overlaps:      17     161

siesta: E_KS(eV) =             -213.7956

siesta: Atomic forces (eV/Ang):
----------------------------------------
   Tot   -0.000000   -0.000000   -0.000000
----------------------------------------
   Max    0.001547
   Res    0.001547    sqrt( Sum f_i^2 / 3N )
----------------------------------------
   Max    0.001547    constrained

Stress tensor Voigt[x,y,z,yz,xz,xy] (kbar):      -35.24      -35.24      -35.24       -0.05       -0.05       -0.05
(Free)E + p*V (eV/cell)     -212.9082
Target enthalpy (eV/cell)     -213.7956

siesta: Stress tensor (static) (eV/Ang**3):
        -0.021997   -0.000034   -0.000034
        -0.000034   -0.021997   -0.000034
        -0.000034   -0.000034   -0.021997

siesta: Pressure (static):         35.24355682  kBar

siesta: Stress tensor (total) (eV/Ang**3):
        -0.021997   -0.000034   -0.000034
        -0.000034   -0.021997   -0.000034
        -0.000034   -0.000034   -0.021997

siesta: Pressure (total):         35.24355682  kBar

                     ====================================
                        Begin CG opt. move =     12
                     ====================================
k-point displ. along   1 input, could be:     0.00    0.50
k-point displ. along   2 input, could be:     0.00    0.50
k-point displ. along   3 input, could be:     0.00    0.50
 Kpoints in:          144 . Kpoints trimmed:          132

siesta: k-grid: Number of k-points = 132
siesta: k-points from Monkhorst-Pack grid
siesta: k-cutoff (effective) =    11.701 Ang
siesta: k-point supercell and displacements
siesta: k-grid:     6     0     0      0.000
siesta: k-grid:     0     6     0      0.000
siesta: k-grid:     0     0     6      0.000

superc: Internal auxiliary supercell:     5 x     5 x     5  =     125
superc: Number of atoms, orbitals, and projectors:    250   3250   1000

outcell: Unit cell vectors (Ang):
       -0.000036    2.757950    2.757950
        2.757950   -0.000036    2.757950
        2.757950    2.757950   -0.000036

outcell: Cell vector modules (Ang)   :    3.900331    3.900331    3.900331
outcell: Cell angles (23,13,12) (deg):     60.0009     60.0009     60.0009
outcell: Cell volume (Ang**3)        :     41.9564
<dSpData1D:S at geom step 12
  <sparsity:sparsity for geom step 12
    nrows_g=26 nrows=14 sparsity=16.7781 nnzs=11342, refcount: 7>
  <dData1D:(new from dSpData1D) n=11342, refcount: 1>
refcount: 1>
new_DM -- step:    13
Re-using DM from previous geometries...
Number of DMs in history: 1
 DM extrapolation coefficients: 
1   1.00000
New DM after history re-use:
<dSpData2D:SpM extrapolated using coords
  <sparsity:sparsity for geom step 12
    nrows_g=26 nrows=14 sparsity=16.7781 nnzs=11342, refcount: 9>
  <dData2D:(temp array for extrapolation) n=11342 m=1, refcount: 1>
refcount: 1>
Note: For starting DM, Qtot, Tr[D*S] =          8.00000000          7.91721795
No. of atoms with KB's overlaping orbs in proc 0. Max # of overlaps:      17     161

InitMesh: MESH = 36 x 36 x 36 = 46656
InitMesh: Mesh cutoff (required, used) =   300.000   353.172 Ry
New grid distribution [1]: sub = 2
New grid distribution [2]: sub = 2
New grid distribution [3]: sub = 2
Setting up quadratic distribution...

        iscf     Eharris(eV)        E_KS(eV)     FreeEng(eV)     dDmax    Ef(eV) dHmax(eV)
   scf:    1     -214.058384     -213.811735     -213.811735  0.038160 -4.058628  0.029006
   scf:    2     -213.811801     -213.811773     -213.811773  0.003836 -4.082932  0.005367
   scf:    3     -213.811776     -213.811775     -213.811775  0.000575 -4.079272  0.000174
   scf:    4     -213.811775     -213.811775     -213.811775  0.000007 -4.079301  0.000133

SCF Convergence by DM+H criterion
max |DM_out - DM_in|         :     0.0000068675
max |H_out - H_in|      (eV) :     0.0001327176
SCF cycle converged after 4 iterations

Using DM_out to compute the final energy and forces
No. of atoms with KB's overlaping orbs in proc 0. Max # of overlaps:      17     161

siesta: E_KS(eV) =             -213.8118

siesta: Atomic forces (eV/Ang):
----------------------------------------
   Tot    0.000000    0.000000   -0.000000
----------------------------------------
   Max    0.001373
   Res    0.001373    sqrt( Sum f_i^2 / 3N )
----------------------------------------
   Max    0.001373    constrained

Stress tensor Voigt[x,y,z,yz,xz,xy] (kbar):        2.00        2.00        2.00       -0.04       -0.04       -0.04
(Free)E + p*V (eV/cell)     -213.8641
Target enthalpy (eV/cell)     -213.8118

siesta: Stress tensor (static) (eV/Ang**3):
         0.001248   -0.000027   -0.000027
        -0.000027    0.001248   -0.000027
        -0.000027   -0.000027    0.001248

siesta: Pressure (static):         -1.99984704  kBar

siesta: Stress tensor (total) (eV/Ang**3):
         0.001248   -0.000027   -0.000027
        -0.000027    0.001248   -0.000027
        -0.000027   -0.000027    0.001248

siesta: Pressure (total):         -1.99984704  kBar

cgvc: Finished line minimization    1.  Mean atomic displacement =    0.3486

                     ====================================
                        Begin CG opt. move =     13
                     ====================================
k-point displ. along   1 input, could be:     0.00    0.50
k-point displ. along   2 input, could be:     0.00    0.50
k-point displ. along   3 input, could be:     0.00    0.50
 Kpoints in:          144 . Kpoints trimmed:          132

siesta: k-grid: Number of k-points = 132
siesta: k-points from Monkhorst-Pack grid
siesta: k-cutoff (effective) =    11.636 Ang
siesta: k-point supercell and displacements
siesta: k-grid:     6     0     0      0.000
siesta: k-grid:     0     6     0      0.000
siesta: k-grid:     0     0     6      0.000

superc: Internal auxiliary supercell:     5 x     5 x     5  =     125
superc: Number of atoms, orbitals, and projectors:    250   3250   1000

outcell: Unit cell vectors (Ang):
        0.021565    2.764294    2.764294
        2.764294    0.021565    2.764294
        2.764294    2.764294    0.021565

outcell: Cell vector modules (Ang)   :    3.909362    3.909362    3.909361
outcell: Cell angles (23,13,12) (deg):     59.4835     59.4835     59.4835
outcell: Cell volume (Ang**3)        :     41.7514
<dSpData1D:S at geom step 13
  <sparsity:sparsity for geom step 13
    nrows_g=26 nrows=14 sparsity=16.8314 nnzs=11378, refcount: 7>
  <dData1D:(new from dSpData1D) n=11378, refcount: 1>
refcount: 1>
new_DM -- step:    14
Re-using DM from previous geometries...
Number of DMs in history: 1
 DM extrapolation coefficients: 
1   1.00000
New DM after history re-use:
<dSpData2D:SpM extrapolated using coords
  <sparsity:sparsity for geom step 13
    nrows_g=26 nrows=14 sparsity=16.8314 nnzs=11378, refcount: 9>
  <dData2D:(temp array for extrapolation) n=11378 m=1, refcount: 1>
refcount: 1>
Note: For starting DM, Qtot, Tr[D*S] =          8.00000000          7.84367105
No. of atoms with KB's overlaping orbs in proc 0. Max # of overlaps:      20     185

InitMesh: MESH = 36 x 36 x 36 = 46656
InitMesh: Mesh cutoff (required, used) =   300.000   348.834 Ry
New grid distribution [1]: sub = 2
New grid distribution [2]: sub = 2
New grid distribution [3]: sub = 2
Setting up quadratic distribution...

        iscf     Eharris(eV)        E_KS(eV)     FreeEng(eV)     dDmax    Ef(eV) dHmax(eV)
   scf:    1     -212.847366     -213.122335     -213.123414  0.041743 -3.734942  0.131026
   scf:    2     -213.124498     -213.127459     -213.128099  0.016070 -3.805750  0.057117
   scf:    3     -213.131730     -213.129879     -213.130648  0.004993 -3.776297  0.029252
   scf:    4     -213.130012     -213.129959     -213.130822  0.000545 -3.778195  0.023074
   scf:    5     -213.129804     -213.129896     -213.130867  0.001086 -3.783250  0.011835
   scf:    6     -213.129906     -213.129901     -213.130871  0.000518 -3.785772  0.006872
   scf:    7     -213.129941     -213.129922     -213.130876  0.000747 -3.789466  0.001049
   scf:    8     -213.129940     -213.129931     -213.130877  0.000033 -3.789671  0.000528

SCF Convergence by DM+H criterion
max |DM_out - DM_in|         :     0.0000330005
max |H_out - H_in|      (eV) :     0.0005281454
SCF cycle converged after 8 iterations

Using DM_out to compute the final energy and forces
No. of atoms with KB's overlaping orbs in proc 0. Max # of overlaps:      20     185

siesta: E_KS(eV) =             -213.1299

siesta: Atomic forces (eV/Ang):
----------------------------------------
   Tot    0.000000    0.000000   -0.000000
----------------------------------------
   Max    1.169310
   Res    1.169308    sqrt( Sum f_i^2 / 3N )
----------------------------------------
   Max    1.169310    constrained

Stress tensor Voigt[x,y,z,yz,xz,xy] (kbar):      -33.79      -33.79      -33.79       59.30       59.30       59.30
(Free)E + p*V (eV/cell)     -212.2504
Target enthalpy (eV/cell)     -213.1309

siesta: Stress tensor (static) (eV/Ang**3):
        -0.021089    0.037011    0.037011
         0.037011   -0.021089    0.037011
         0.037011    0.037011   -0.021089

siesta: Pressure (static):         33.78781899  kBar

siesta: Stress tensor (total) (eV/Ang**3):
        -0.021089    0.037011    0.037011
         0.037011   -0.021089    0.037011
         0.037011    0.037011   -0.021089

siesta: Pressure (total):         33.78781899  kBar

                     ====================================
                        Begin CG opt. move =     14
                     ====================================
k-point displ. along   1 input, could be:     0.00    0.50
k-point displ. along   2 input, could be:     0.00    0.50
k-point displ. along   3 input, could be:     0.00    0.50
 Kpoints in:          144 . Kpoints trimmed:          132

siesta: k-grid: Number of k-points = 132
siesta: k-points from Monkhorst-Pack grid
siesta: k-cutoff (effective) =    11.701 Ang
siesta: k-point supercell and displacements
siesta: k-grid:     6     0     0      0.000
siesta: k-grid:     0     6     0      0.000
siesta: k-grid:     0     0     6      0.000

superc: Internal auxiliary supercell:     5 x     5 x     5  =     125
superc: Number of atoms, orbitals, and projectors:    250   3250   1000

outcell: Unit cell vectors (Ang):
       -0.000006    2.757959    2.757959
        2.757959   -0.000006    2.757959
        2.757959    2.757959   -0.000006

outcell: Cell vector modules (Ang)   :    3.900343    3.900343    3.900343
outcell: Cell angles (23,13,12) (deg):     60.0002     60.0002     60.0002
outcell: Cell volume (Ang**3)        :     41.9561
<dSpData1D:S at geom step 14
  <sparsity:sparsity for geom step 14
    nrows_g=26 nrows=14 sparsity=16.7781 nnzs=11342, refcount: 7>
  <dData1D:(new from dSpData1D) n=11342, refcount: 1>
refcount: 1>
new_DM -- step:    15
Re-using DM from previous geometries...
Number of DMs in history: 1
 DM extrapolation coefficients: 
1   1.00000
New DM after history re-use:
<dSpData2D:SpM extrapolated using coords
  <sparsity:sparsity for geom step 14
    nrows_g=26 nrows=14 sparsity=16.7781 nnzs=11342, refcount: 9>
  <dData2D:(temp array for extrapolation) n=11342 m=1, refcount: 1>
refcount: 1>
Note: For starting DM, Qtot, Tr[D*S] =          8.00000000          7.91197058
No. of atoms with KB's overlaping orbs in proc 0. Max # of overlaps:      17     161

InitMesh: MESH = 36 x 36 x 36 = 46656
InitMesh: Mesh cutoff (required, used) =   300.000   353.176 Ry
New grid distribution [1]: sub = 2
New grid distribution [2]: sub = 2
New grid distribution [3]: sub = 2
Setting up quadratic distribution...

        iscf     Eharris(eV)        E_KS(eV)     FreeEng(eV)     dDmax    Ef(eV) dHmax(eV)
   scf:    1     -214.282213     -213.810573     -213.810573  0.041744 -4.155453  0.120114
   scf:    2     -213.812238     -213.811646     -213.811646  0.015588 -4.063149  0.024272
   scf:    3     -213.811863     -213.811768     -213.811768  0.003041 -4.081522  0.003923
   scf:    4     -213.811776     -213.811772     -213.811772  0.000143 -4.081004  0.003012
   scf:    5     -213.811776     -213.811775     -213.811775  0.000260 -4.079882  0.001052
   scf:    6     -213.811775     -213.811775     -213.811775  0.000047 -4.079677  0.000700

SCF Convergence by DM+H criterion
max |DM_out - DM_in|         :     0.0000466496
max |H_out - H_in|      (eV) :     0.0006999625
SCF cycle converged after 6 iterations

Using DM_out to compute the final energy and forces
No. of atoms with KB's overlaping orbs in proc 0. Max # of overlaps:      17     161

siesta: E_KS(eV) =             -213.8118

siesta: Atomic forces (eV/Ang):
----------------------------------------
   Tot   -0.000000    0.000000    0.000000
----------------------------------------
   Max    0.003134
   Res    0.003134    sqrt( Sum f_i^2 / 3N )
----------------------------------------
   Max    0.003134    constrained

Stress tensor Voigt[x,y,z,yz,xz,xy] (kbar):        1.95        1.95        1.95        0.08        0.08        0.08
(Free)E + p*V (eV/cell)     -213.8629
Target enthalpy (eV/cell)     -213.8118

siesta: Stress tensor (static) (eV/Ang**3):
         0.001219    0.000053    0.000053
         0.000053    0.001219    0.000053
         0.000053    0.000053    0.001219

siesta: Pressure (static):         -1.95331119  kBar

siesta: Stress tensor (total) (eV/Ang**3):
         0.001219    0.000053    0.000053
         0.000053    0.001219    0.000053
         0.000053    0.000053    0.001219

siesta: Pressure (total):         -1.95331119  kBar

cgvc: Finished line minimization    2.  Mean atomic displacement =    0.0005

                     ====================================
                        Begin CG opt. move =     15
                     ====================================
k-point displ. along   1 input, could be:     0.00    0.50
k-point displ. along   2 input, could be:     0.00    0.50
k-point displ. along   3 input, could be:     0.00    0.50
 Kpoints in:          144 . Kpoints trimmed:          132

siesta: k-grid: Number of k-points = 132
siesta: k-points from Monkhorst-Pack grid
siesta: k-cutoff (effective) =    11.700 Ang
siesta: k-point supercell and displacements
siesta: k-grid:     6     0     0      0.000
siesta: k-grid:     0     6     0      0.000
siesta: k-grid:     0     0     6      0.000

superc: Internal auxiliary supercell:     5 x     5 x     5  =     125
superc: Number of atoms, orbitals, and projectors:    250   3250   1000

outcell: Unit cell vectors (Ang):
       -0.000016    2.757819    2.757819
        2.757819   -0.000016    2.757819
        2.757819    2.757819   -0.000016

outcell: Cell vector modules (Ang)   :    3.900146    3.900146    3.900146
outcell: Cell angles (23,13,12) (deg):     60.0004     60.0004     60.0004
outcell: Cell volume (Ang**3)        :     41.9499
<dSpData1D:S at geom step 15
  <sparsity:sparsity for geom step 15
    nrows_g=26 nrows=14 sparsity=16.7781 nnzs=11342, refcount: 7>
  <dData1D:(new from dSpData1D) n=11342, refcount: 1>
refcount: 1>
new_DM -- step:    16
Re-using DM from previous geometries...
Number of DMs in history: 1
 DM extrapolation coefficients: 
1   1.00000
New DM after history re-use:
<dSpData2D:SpM extrapolated using coords
  <sparsity:sparsity for geom step 15
    nrows_g=26 nrows=14 sparsity=16.7781 nnzs=11342, refcount: 9>
  <dData2D:(temp array for extrapolation) n=11342 m=1, refcount: 1>
refcount: 1>
No. of atoms with KB's overlaping orbs in proc 0. Max # of overlaps:      17     161

InitMesh: MESH = 36 x 36 x 36 = 46656
InitMesh: Mesh cutoff (required, used) =   300.000   353.209 Ry
New grid distribution [1]: sub = 2
New grid distribution [2]: sub = 2
New grid distribution [3]: sub = 2
Setting up quadratic distribution...

        iscf     Eharris(eV)        E_KS(eV)     FreeEng(eV)     dDmax    Ef(eV) dHmax(eV)
   scf:    1     -213.810908     -213.811783     -213.811783  0.000042 -4.080130  0.000023

SCF Convergence by DM+H criterion
max |DM_out - DM_in|         :     0.0000423587
max |H_out - H_in|      (eV) :     0.0000231348
SCF cycle converged after 1 iterations

Using DM_out to compute the final energy and forces
No. of atoms with KB's overlaping orbs in proc 0. Max # of overlaps:      17     161

siesta: E_KS(eV) =             -213.8118

siesta: Atomic forces (eV/Ang):
----------------------------------------
   Tot    0.000000   -0.000000   -0.000000
----------------------------------------
   Max    0.001341
   Res    0.001341    sqrt( Sum f_i^2 / 3N )
----------------------------------------
   Max    0.001341    constrained

Stress tensor Voigt[x,y,z,yz,xz,xy] (kbar):        1.85        1.85        1.85        0.03        0.03        0.03
(Free)E + p*V (eV/cell)     -213.8603
Target enthalpy (eV/cell)     -213.8118

siesta: Stress tensor (static) (eV/Ang**3):
         0.001157    0.000022    0.000022
         0.000022    0.001157    0.000022
         0.000022    0.000022    0.001157

siesta: Pressure (static):         -1.85375095  kBar

siesta: Stress tensor (total) (eV/Ang**3):
         0.001157    0.000022    0.000022
         0.000022    0.001157    0.000022
         0.000022    0.000022    0.001157

siesta: Pressure (total):         -1.85375095  kBar

                     ====================================
                        Begin CG opt. move =     16
                     ====================================
k-point displ. along   1 input, could be:     0.00    0.50
k-point displ. along   2 input, could be:     0.00    0.50
k-point displ. along   3 input, could be:     0.00    0.50
 Kpoints in:          144 . Kpoints trimmed:          132

siesta: k-grid: Number of k-points = 132
siesta: k-points from Monkhorst-Pack grid
siesta: k-cutoff (effective) =    11.699 Ang
siesta: k-point supercell and displacements
siesta: k-grid:     6     0     0      0.000
siesta: k-grid:     0     6     0      0.000
siesta: k-grid:     0     0     6      0.000

superc: Internal auxiliary supercell:     5 x     5 x     5  =     125
superc: Number of atoms, orbitals, and projectors:    250   3250   1000

outcell: Unit cell vectors (Ang):
       -0.000032    2.757596    2.757596
        2.757596   -0.000032    2.757596
        2.757596    2.757596   -0.000032

outcell: Cell vector modules (Ang)   :    3.899829    3.899829    3.899829
[...]
New grid distribution [3]: sub = 2
Setting up quadratic distribution...

        iscf     Eharris(eV)        E_KS(eV)     FreeEng(eV)     dDmax    Ef(eV) dHmax(eV)
   scf:    1     -213.808209     -213.811806     -213.811806  0.000609 -4.084426  0.000457
   scf:    2     -213.811806     -213.811806     -213.811806  0.000061 -4.084049  0.000235

SCF Convergence by DM+H criterion
max |DM_out - DM_in|         :     0.0000605630
max |H_out - H_in|      (eV) :     0.0002354677
SCF cycle converged after 2 iterations

Using DM_out to compute the final energy and forces
No. of atoms with KB's overlaping orbs in proc 0. Max # of overlaps:      17     161

siesta: E_KS(eV) =             -213.8118

siesta: Atomic forces (eV/Ang):
----------------------------------------
   Tot    0.000000   -0.000000    0.000000
----------------------------------------
   Max    0.013078
   Res    0.013078    sqrt( Sum f_i^2 / 3N )
----------------------------------------
   Max    0.013078    constrained

Stress tensor Voigt[x,y,z,yz,xz,xy] (kbar):        0.77        0.77        0.77       -0.37       -0.37       -0.37
(Free)E + p*V (eV/cell)     -213.8320
Target enthalpy (eV/cell)     -213.8118

siesta: Stress tensor (static) (eV/Ang**3):
         0.000483   -0.000233   -0.000233
        -0.000233    0.000483   -0.000233
        -0.000233   -0.000233    0.000483

siesta: Pressure (static):         -0.77335920  kBar

siesta: Stress tensor (total) (eV/Ang**3):
         0.000483   -0.000233   -0.000233
        -0.000233    0.000483   -0.000233
        -0.000233   -0.000233    0.000483

siesta: Pressure (total):         -0.77335920  kBar

                     ====================================
                        Begin CG opt. move =     19
                     ====================================
k-point displ. along   1 input, could be:     0.00    0.50
k-point displ. along   2 input, could be:     0.00    0.50
k-point displ. along   3 input, could be:     0.00    0.50
 Kpoints in:          144 . Kpoints trimmed:          132

siesta: k-grid: Number of k-points = 132
siesta: k-points from Monkhorst-Pack grid
siesta: k-cutoff (effective) =    11.697 Ang
siesta: k-point supercell and displacements
siesta: k-grid:     6     0     0      0.000
siesta: k-grid:     0     6     0      0.000
siesta: k-grid:     0     0     6      0.000

superc: Internal auxiliary supercell:     5 x     5 x     5  =     125
superc: Number of atoms, orbitals, and projectors:    250   3250   1000

outcell: Unit cell vectors (Ang):
       -0.000073    2.757020    2.757020
        2.757020   -0.000073    2.757020
        2.757020    2.757020   -0.000073

outcell: Cell vector modules (Ang)   :    3.899015    3.899015    3.899015
outcell: Cell angles (23,13,12) (deg):     60.0018     60.0018     60.0018
outcell: Cell volume (Ang**3)        :     41.9147
<dSpData1D:S at geom step 19
  <sparsity:sparsity for geom step 19
    nrows_g=26 nrows=14 sparsity=16.7781 nnzs=11342, refcount: 7>
  <dData1D:(new from dSpData1D) n=11342, refcount: 1>
refcount: 1>
new_DM -- step:    20
Re-using DM from previous geometries...
Number of DMs in history: 1
 DM extrapolation coefficients: 
1   1.00000
New DM after history re-use:
<dSpData2D:SpM extrapolated using coords
  <sparsity:sparsity for geom step 19
    nrows_g=26 nrows=14 sparsity=16.7781 nnzs=11342, refcount: 9>
  <dData2D:(temp array for extrapolation) n=11342 m=1, refcount: 1>
refcount: 1>
No. of atoms with KB's overlaping orbs in proc 0. Max # of overlaps:      17     161

InitMesh: MESH = 36 x 36 x 36 = 46656
InitMesh: Mesh cutoff (required, used) =   300.000   353.402 Ry
New grid distribution [1]: sub = 2
New grid distribution [2]: sub = 2
New grid distribution [3]: sub = 2
Setting up quadratic distribution...

        iscf     Eharris(eV)        E_KS(eV)     FreeEng(eV)     dDmax    Ef(eV) dHmax(eV)
   scf:    1     -213.814034     -213.811807     -213.811807  0.000362 -4.082743  0.000257
   scf:    2     -213.811807     -213.811807     -213.811807  0.000034 -4.082957  0.000059

SCF Convergence by DM+H criterion
max |DM_out - DM_in|         :     0.0000341747
max |H_out - H_in|      (eV) :     0.0000593295
SCF cycle converged after 2 iterations

Using DM_out to compute the final energy and forces
No. of atoms with KB's overlaping orbs in proc 0. Max # of overlaps:      17     161

siesta: E_KS(eV) =             -213.8118

siesta: Atomic forces (eV/Ang):
----------------------------------------
   Tot   -0.000000   -0.000000    0.000000
----------------------------------------
   Max    0.008528
   Res    0.008528    sqrt( Sum f_i^2 / 3N )
----------------------------------------
   Max    0.008528    constrained

Stress tensor Voigt[x,y,z,yz,xz,xy] (kbar):        1.10        1.10        1.10       -0.24       -0.24       -0.24
(Free)E + p*V (eV/cell)     -213.8406
Target enthalpy (eV/cell)     -213.8118

siesta: Stress tensor (static) (eV/Ang**3):
         0.000688   -0.000152   -0.000152
        -0.000152    0.000688   -0.000152
        -0.000152   -0.000152    0.000688

siesta: Pressure (static):         -1.10179088  kBar

siesta: Stress tensor (total) (eV/Ang**3):
         0.000688   -0.000152   -0.000152
        -0.000152    0.000688   -0.000152
        -0.000152   -0.000152    0.000688

siesta: Pressure (total):         -1.10179088  kBar

cgvc: Finished line minimization    3.  Mean atomic displacement =    0.0033

                     ====================================
                        Begin CG opt. move =     20
                     ====================================
k-point displ. along   1 input, could be:     0.00    0.50
k-point displ. along   2 input, could be:     0.00    0.50
k-point displ. along   3 input, could be:     0.00    0.50
 Kpoints in:          144 . Kpoints trimmed:          132

siesta: k-grid: Number of k-points = 132
siesta: k-points from Monkhorst-Pack grid
siesta: k-cutoff (effective) =    11.693 Ang
siesta: k-point supercell and displacements
siesta: k-grid:     6     0     0      0.000
siesta: k-grid:     0     6     0      0.000
siesta: k-grid:     0     0     6      0.000

superc: Internal auxiliary supercell:     5 x     5 x     5  =     125
superc: Number of atoms, orbitals, and projectors:    250   3250   1000

outcell: Unit cell vectors (Ang):
       -0.000022    2.756092    2.756092
        2.756092   -0.000022    2.756092
        2.756092    2.756092   -0.000022

outcell: Cell vector modules (Ang)   :    3.897703    3.897703    3.897703
outcell: Cell angles (23,13,12) (deg):     60.0005     60.0005     60.0005
outcell: Cell volume (Ang**3)        :     41.8713
<dSpData1D:S at geom step 20
  <sparsity:sparsity for geom step 20
    nrows_g=26 nrows=14 sparsity=16.7781 nnzs=11342, refcount: 7>
  <dData1D:(new from dSpData1D) n=11342, refcount: 1>
refcount: 1>
new_DM -- step:    21
Re-using DM from previous geometries...
Number of DMs in history: 1
 DM extrapolation coefficients: 
1   1.00000
New DM after history re-use:
<dSpData2D:SpM extrapolated using coords
  <sparsity:sparsity for geom step 20
    nrows_g=26 nrows=14 sparsity=16.7781 nnzs=11342, refcount: 9>
  <dData2D:(temp array for extrapolation) n=11342 m=1, refcount: 1>
refcount: 1>
No. of atoms with KB's overlaping orbs in proc 0. Max # of overlaps:      17     161

InitMesh: MESH = 36 x 36 x 36 = 46656
InitMesh: Mesh cutoff (required, used) =   300.000   353.651 Ry
New grid distribution [1]: sub = 2
New grid distribution [2]: sub = 2
New grid distribution [3]: sub = 2
Setting up quadratic distribution...

        iscf     Eharris(eV)        E_KS(eV)     FreeEng(eV)     dDmax    Ef(eV) dHmax(eV)
   scf:    1     -213.805632     -213.811833     -213.811833  0.001033 -4.089053  0.000762
   scf:    2     -213.811833     -213.811833     -213.811833  0.000101 -4.088414  0.000223
   scf:    3     -213.811833     -213.811833     -213.811833  0.000024 -4.088565  0.000075

SCF Convergence by DM+H criterion
max |DM_out - DM_in|         :     0.0000239714
max |H_out - H_in|      (eV) :     0.0000748972
SCF cycle converged after 3 iterations

Using DM_out to compute the final energy and forces
No. of atoms with KB's overlaping orbs in proc 0. Max # of overlaps:      17     161

siesta: E_KS(eV) =             -213.8118

siesta: Atomic forces (eV/Ang):
----------------------------------------
   Tot    0.000000    0.000000    0.000000
----------------------------------------
   Max    0.001122
   Res    0.001122    sqrt( Sum f_i^2 / 3N )
----------------------------------------
   Max    0.001122    constrained

Stress tensor Voigt[x,y,z,yz,xz,xy] (kbar):        0.16        0.16        0.16       -0.03       -0.03       -0.03
(Free)E + p*V (eV/cell)     -213.8161
Target enthalpy (eV/cell)     -213.8118

siesta: Stress tensor (static) (eV/Ang**3):
         0.000103   -0.000020   -0.000020
        -0.000020    0.000103   -0.000020
        -0.000020   -0.000020    0.000103

siesta: Pressure (static):         -0.16469419  kBar

siesta: Stress tensor (total) (eV/Ang**3):
         0.000103   -0.000020   -0.000020
        -0.000020    0.000103   -0.000020
        -0.000020   -0.000020    0.000103

siesta: Pressure (total):         -0.16469419  kBar

                     ====================================
                        Begin CG opt. move =     21
                     ====================================
k-point displ. along   1 input, could be:     0.00    0.50
k-point displ. along   2 input, could be:     0.00    0.50
k-point displ. along   3 input, could be:     0.00    0.50
 Kpoints in:          144 . Kpoints trimmed:          132

siesta: k-grid: Number of k-points = 132
siesta: k-points from Monkhorst-Pack grid
siesta: k-cutoff (effective) =    11.687 Ang
siesta: k-point supercell and displacements
siesta: k-grid:     6     0     0      0.000
siesta: k-grid:     0     6     0      0.000
siesta: k-grid:     0     0     6      0.000

superc: Internal auxiliary supercell:     5 x     5 x     5  =     125
superc: Number of atoms, orbitals, and projectors:    250   3250   1000

outcell: Unit cell vectors (Ang):
        0.000059    2.754608    2.754608
        2.754608    0.000059    2.754608
        2.754608    2.754608    0.000059

outcell: Cell vector modules (Ang)   :    3.895603    3.895603    3.895603
outcell: Cell angles (23,13,12) (deg):     59.9986     59.9986     59.9986
outcell: Cell volume (Ang**3)        :     41.8018
<dSpData1D:S at geom step 21
  <sparsity:sparsity for geom step 21
    nrows_g=26 nrows=14 sparsity=16.7781 nnzs=11342, refcount: 7>
  <dData1D:(new from dSpData1D) n=11342, refcount: 1>
refcount: 1>
new_DM -- step:    22
Re-using DM from previous geometries...
Number of DMs in history: 1
 DM extrapolation coefficients: 
1   1.00000
New DM after history re-use:
<dSpData2D:SpM extrapolated using coords
  <sparsity:sparsity for geom step 21
    nrows_g=26 nrows=14 sparsity=16.7781 nnzs=11342, refcount: 9>
  <dData2D:(temp array for extrapolation) n=11342 m=1, refcount: 1>
refcount: 1>
No. of atoms with KB's overlaping orbs in proc 0. Max # of overlaps:      17     161

InitMesh: MESH = 36 x 36 x 36 = 46656
InitMesh: Mesh cutoff (required, used) =   300.000   354.030 Ry
New grid distribution [1]: sub = 2
New grid distribution [2]: sub = 2
New grid distribution [3]: sub = 2
Setting up quadratic distribution...

        iscf     Eharris(eV)        E_KS(eV)     FreeEng(eV)     dDmax    Ef(eV) dHmax(eV)
   scf:    1     -213.801837     -213.811795     -213.811795  0.001647 -4.096197  0.001221
   scf:    2     -213.811795     -213.811795     -213.811795  0.000163 -4.095181  0.000336
   scf:    3     -213.811795     -213.811795     -213.811795  0.000038 -4.095418  0.000115

SCF Convergence by DM+H criterion
max |DM_out - DM_in|         :     0.0000379543
max |H_out - H_in|      (eV) :     0.0001145772
SCF cycle converged after 3 iterations

Using DM_out to compute the final energy and forces
No. of atoms with KB's overlaping orbs in proc 0. Max # of overlaps:      17     161

siesta: E_KS(eV) =             -213.8118

siesta: Atomic forces (eV/Ang):
----------------------------------------
   Tot    0.000000    0.000000   -0.000000
----------------------------------------
   Max    0.010755
   Res    0.010755    sqrt( Sum f_i^2 / 3N )
----------------------------------------
   Max    0.010755    constrained

Stress tensor Voigt[x,y,z,yz,xz,xy] (kbar):       -1.32       -1.32       -1.32        0.31        0.31        0.31
(Free)E + p*V (eV/cell)     -213.7773
Target enthalpy (eV/cell)     -213.8118

siesta: Stress tensor (static) (eV/Ang**3):
        -0.000825    0.000192    0.000192
         0.000192   -0.000825    0.000192
         0.000192    0.000192   -0.000825

siesta: Pressure (static):          1.32218380  kBar

siesta: Stress tensor (total) (eV/Ang**3):
        -0.000825    0.000192    0.000192
         0.000192   -0.000825    0.000192
         0.000192    0.000192   -0.000825

siesta: Pressure (total):          1.32218380  kBar

                     ====================================
                        Begin CG opt. move =     22
                     ====================================
k-point displ. along   1 input, could be:     0.00    0.50
k-point displ. along   2 input, could be:     0.00    0.50
k-point displ. along   3 input, could be:     0.00    0.50
 Kpoints in:          144 . Kpoints trimmed:          132

siesta: k-grid: Number of k-points = 132
siesta: k-points from Monkhorst-Pack grid
siesta: k-cutoff (effective) =    11.692 Ang
siesta: k-point supercell and displacements
siesta: k-grid:     6     0     0      0.000
siesta: k-grid:     0     6     0      0.000
siesta: k-grid:     0     0     6      0.000

superc: Internal auxiliary supercell:     5 x     5 x     5  =     125
superc: Number of atoms, orbitals, and projectors:    250   3250   1000

outcell: Unit cell vectors (Ang):
       -0.000014    2.755937    2.755937
        2.755937   -0.000014    2.755937
        2.755937    2.755937   -0.000014

outcell: Cell vector modules (Ang)   :    3.897483    3.897483    3.897483
outcell: Cell angles (23,13,12) (deg):     60.0003     60.0003     60.0003
outcell: Cell volume (Ang**3)        :     41.8640
<dSpData1D:S at geom step 22
  <sparsity:sparsity for geom step 22
    nrows_g=26 nrows=14 sparsity=16.7781 nnzs=11342, refcount: 7>
  <dData1D:(new from dSpData1D) n=11342, refcount: 1>
refcount: 1>
new_DM -- step:    23
Re-using DM from previous geometries...
Number of DMs in history: 1
 DM extrapolation coefficients: 
1   1.00000
New DM after history re-use:
<dSpData2D:SpM extrapolated using coords
  <sparsity:sparsity for geom step 22
    nrows_g=26 nrows=14 sparsity=16.7781 nnzs=11342, refcount: 9>
  <dData2D:(temp array for extrapolation) n=11342 m=1, refcount: 1>
refcount: 1>
No. of atoms with KB's overlaping orbs in proc 0. Max # of overlaps:      17     161

InitMesh: MESH = 36 x 36 x 36 = 46656
InitMesh: Mesh cutoff (required, used) =   300.000   353.693 Ry
New grid distribution [1]: sub = 2
New grid distribution [2]: sub = 2
New grid distribution [3]: sub = 2
Setting up quadratic distribution...

        iscf     Eharris(eV)        E_KS(eV)     FreeEng(eV)     dDmax    Ef(eV) dHmax(eV)
   scf:    1     -213.820758     -213.811833     -213.811833  0.001500 -4.088649  0.001121
   scf:    2     -213.811833     -213.811833     -213.811833  0.000149 -4.089581  0.000283
   scf:    3     -213.811833     -213.811833     -213.811833  0.000034 -4.089367  0.000098

SCF Convergence by DM+H criterion
max |DM_out - DM_in|         :     0.0000339563
max |H_out - H_in|      (eV) :     0.0000979889
SCF cycle converged after 3 iterations

Using DM_out to compute the final energy and forces
No. of atoms with KB's overlaping orbs in proc 0. Max # of overlaps:      17     161

siesta: E_KS(eV) =             -213.8118

siesta: Atomic forces (eV/Ang):
----------------------------------------
   Tot    0.000000    0.000000   -0.000000
----------------------------------------
   Max    0.000087
   Res    0.000086    sqrt( Sum f_i^2 / 3N )
----------------------------------------
   Max    0.000087    constrained

Stress tensor Voigt[x,y,z,yz,xz,xy] (kbar):        0.02        0.02        0.02        0.00        0.00        0.00
(Free)E + p*V (eV/cell)     -213.8124
Target enthalpy (eV/cell)     -213.8118

siesta: Stress tensor (static) (eV/Ang**3):
         0.000014    0.000001    0.000001
         0.000001    0.000014    0.000001
         0.000001    0.000001    0.000014

siesta: Pressure (static):         -0.02297352  kBar

siesta: Stress tensor (total) (eV/Ang**3):
         0.000014    0.000001    0.000001
         0.000001    0.000014    0.000001
         0.000001    0.000001    0.000014

siesta: Pressure (total):         -0.02297352  kBar

outcoor: Relaxed atomic coordinates (fractional):           
    0.25000100    0.25000100    0.25000100   1       1  Si
   -0.00000100   -0.00000100   -0.00000100   1       2  Si

outcell: Unit cell vectors (Ang):
       -0.000014    2.755937    2.755937
        2.755937   -0.000014    2.755937
        2.755937    2.755937   -0.000014

outcell: Cell vector modules (Ang)   :    3.897483    3.897483    3.897483
outcell: Cell angles (23,13,12) (deg):     60.0003     60.0003     60.0003
outcell: Cell volume (Ang**3)        :     41.8640

siesta: Program's energy decomposition (eV):
siesta: Ebs     =       -75.424130
siesta: Eions   =       444.480597
siesta: Ena     =       174.512823
siesta: Ekin    =        81.025424
siesta: Enl     =        35.378824
siesta: Eso     =         0.000000
siesta: Edftu   =         0.000000
siesta: DEna    =         4.082288
siesta: DUscf   =         0.293909
siesta: DUext   =         0.000000
siesta: Ex      =       -56.420414
siesta: Ec      =        -8.204090
siesta: Exc     =       -64.624504
siesta: EbV     =         0.000000
siesta: eta*DQ  =         0.000000
siesta: Emadel  =         0.000000
siesta: Emeta   =         0.000000
siesta: Emolmec =         0.000000
siesta: Ekinion =         0.000000
siesta: Eharris =      -213.811833
siesta: Etot    =      -213.811833
siesta: FreeEng =      -213.811833

siesta: Final energy (eV):
siesta:  Band Struct. =     -75.424130
siesta:       Kinetic =      81.025424
siesta:       Hartree =      15.200858
siesta:         Edftu =       0.000000
siesta:       Eso     =       0.000000
siesta:    Ext. field =       0.000000
siesta:         Exch. =     -56.420414
siesta:         Corr. =      -8.204090
siesta:     Bulk bias =       0.000000
siesta:   Exch.-corr. =     -64.624504
siesta:  Ion-electron =    -102.769234
siesta:       Ion-ion =    -142.644377
siesta:       Ekinion =       0.000000
siesta: D3 dispersion =       0.000000
siesta:         Total =    -213.811833
siesta:         Fermi =      -4.089367

siesta: Stress tensor (static) (eV/Ang**3):
siesta:     0.000014    0.000001    0.000001
siesta:     0.000001    0.000014    0.000001
siesta:     0.000001    0.000001    0.000014

siesta: Constrained stress tensor (static) (eV/Ang**3):
siesta:     0.000014    0.000001    0.000001
siesta:     0.000001    0.000014    0.000001
siesta:     0.000001    0.000001    0.000014

siesta: Cell volume =         41.864018 Ang**3

siesta: Pressure (static):
siesta:                Solid            Molecule  Units
siesta:          -0.00000016         -0.00000013  Ry/Bohr**3
siesta:          -0.00001434         -0.00001149  eV/Ang**3
siesta:          -0.02297352         -0.01841186  kBar
(Free)E+ p_basis*V_orbitals  =        -212.296878
(Free)Eharris+ p_basis*V_orbitals  =        -212.296878

cite: Please see "Si-diamond.bib" for an exhaustive BiBTeX file.
cite: Please clearly indicate Siesta version in published work: 5.0.1
cite: This calculation has made use of the following articles
cite: which are encouraged to be cited in a published work.
        Primary SIESTA paper
          DOI: www.doi.org/10.1088/0953-8984/14/11/302


>> End of run:   5-DEC-2024  17:44:35
Job completed
