<pdos>
<nspin>1</nspin>
<norbitals>26</norbitals>
<fermi_energy units="eV"> -0.390825535E+01</fermi_energy>
<energy_values units="eV">
 -0.100000000E+02
 -0.999599920E+01
 -0.999199840E+01
 -0.998799760E+01
 -0.998399680E+01
 -0.997999600E+01
 -0.997599520E+01
 -0.997199440E+01
 -0.996799360E+01
 -0.996399280E+01
 -0.995999200E+01
 -0.995599120E+01
 -0.995199040E+01
 -0.994798960E+01
 -0.994398880E+01
 -0.993998800E+01
 -0.993598720E+01
 -0.993198640E+01
 -0.992798560E+01
 -0.992398480E+01
 -0.991998400E+01
 -0.991598320E+01
 -0.991198240E+01
 -0.990798160E+01
 -0.990398080E+01
 -0.989998000E+01
 -0.989597920E+01
 -0.989197840E+01
 -0.988797760E+01
 -0.988397680E+01
 -0.987997600E+01
 -0.987597520E+01
 -0.987197439E+01
 -0.986797359E+01
 -0.986397279E+01
 -0.985997199E+01
 -0.985597119E+01
 -0.985197039E+01
 -0.984796959E+01
 -0.984396879E+01
 -0.983996799E+01
 -0.983596719E+01
 -0.983196639E+01
 -0.982796559E+01
 -0.982396479E+01
 -0.981996399E+01
 -0.981596319E+01
 -0.981196239E+01
 -0.980796159E+01
 -0.980396079E+01
 -0.979995999E+01
 -0.979595919E+01
 -0.979195839E+01
 -0.978795759E+01
 -0.978395679E+01
 -0.977995599E+01
 -0.977595519E+01
 -0.977195439E+01
 -0.976795359E+01
 -0.976395279E+01
 -0.975995199E+01
 -0.975595119E+01
 -0.975195039E+01
 -0.974794959E+01
 -0.974394879E+01
 -0.973994799E+01
 -0.973594719E+01
 -0.973194639E+01
 -0.972794559E+01
 -0.972394479E+01
 -0.971994399E+01
 -0.971594319E+01
 -0.971194239E+01
 -0.970794159E+01
 -0.970394079E+01
 -0.969993999E+01
 -0.969593919E+01
 -0.969193839E+01
 -0.968793759E+01
 -0.968393679E+01
 -0.967993599E+01
 -0.967593519E+01
 -0.967193439E+01
 -0.966793359E+01
 -0.966393279E+01
 -0.965993199E+01
 -0.965593119E+01
 -0.965193039E+01
 -0.964792959E+01
 -0.964392879E+01
 -0.963992799E+01
 -0.963592719E+01
 -0.963192639E+01
 -0.962792559E+01
 -0.962392478E+01
 -0.961992398E+01
 -0.961592318E+01
 -0.961192238E+01
 -0.960792158E+01
 -0.960392078E+01
 -0.959991998E+01
 -0.959591918E+01
 -0.959191838E+01
 -0.958791758E+01
 -0.958391678E+01
 -0.957991598E+01
 -0.957591518E+01
 -0.957191438E+01
 -0.956791358E+01
 -0.956391278E+01
 -0.955991198E+01
 -0.955591118E+01
 -0.955191038E+01
 -0.954790958E+01
 -0.954390878E+01
 -0.953990798E+01
 -0.953590718E+01
 -0.953190638E+01
 -0.952790558E+01
 -0.952390478E+01
 -0.951990398E+01
 -0.951590318E+01
 -0.951190238E+01
 -0.950790158E+01
 -0.950390078E+01
 -0.949989998E+01
 -0.949589918E+01
 -0.949189838E+01
 -0.948789758E+01
 -0.948389678E+01
 -0.947989598E+01
 -0.947589518E+01
 -0.947189438E+01
 -0.946789358E+01
 -0.946389278E+01
 -0.945989198E+01
 -0.945589118E+01
 -0.945189038E+01
 -0.944788958E+01
 -0.944388878E+01
 -0.943988798E+01
 -0.943588718E+01
 -0.943188638E+01
 -0.942788558E+01
 -0.942388478E+01
 -0.941988398E+01
 -0.941588318E+01
 -0.941188238E+01
 -0.940788158E+01
 -0.940388078E+01
 -0.939987998E+01
 -0.939587918E+01
 -0.939187838E+01
 -0.938787758E+01
 -0.938387678E+01
 -0.937987598E+01
 -0.937587518E+01
 -0.937187437E+01
 -0.936787357E+01
 -0.936387277E+01
 -0.935987197E+01
 -0.935587117E+01
 -0.935187037E+01
 -0.934786957E+01
 -0.934386877E+01
 -0.933986797E+01
 -0.933586717E+01
 -0.933186637E+01
 -0.932786557E+01
 -0.932386477E+01
 -0.931986397E+01
 -0.931586317E+01
 -0.931186237E+01
 -0.930786157E+01
 -0.930386077E+01
 -0.929985997E+01
 -0.929585917E+01
 -0.929185837E+01
 -0.928785757E+01
 -0.928385677E+01
 -0.927985597E+01
 -0.927585517E+01
 -0.927185437E+01
 -0.926785357E+01
 -0.926385277E+01
 -0.925985197E+01
 -0.925585117E+01
 -0.925185037E+01
 -0.924784957E+01
 -0.924384877E+01
 -0.923984797E+01
 -0.923584717E+01
 -0.923184637E+01
 -0.922784557E+01
 -0.922384477E+01
 -0.921984397E+01
 -0.921584317E+01
 -0.921184237E+01
 -0.920784157E+01
 -0.920384077E+01
 -0.919983997E+01
 -0.919583917E+01
 -0.919183837E+01
 -0.918783757E+01
 -0.918383677E+01
 -0.917983597E+01
 -0.917583517E+01
 -0.917183437E+01
 -0.916783357E+01
 -0.916383277E+01
 -0.915983197E+01
 -0.915583117E+01
 -0.915183037E+01
 -0.914782957E+01
 -0.914382877E+01
 -0.913982797E+01
 -0.913582717E+01
 -0.913182637E+01
 -0.912782557E+01
 -0.912382476E+01
 -0.911982396E+01
 -0.911582316E+01
 -0.911182236E+01
 -0.910782156E+01
 -0.910382076E+01
 -0.909981996E+01
 -0.909581916E+01
 -0.909181836E+01
 -0.908781756E+01
 -0.908381676E+01
 -0.907981596E+01
 -0.907581516E+01
 -0.907181436E+01
 -0.906781356E+01
 -0.906381276E+01
 -0.905981196E+01
 -0.905581116E+01
 -0.905181036E+01
 -0.904780956E+01
 -0.904380876E+01
 -0.903980796E+01
 -0.903580716E+01
 -0.903180636E+01
 -0.902780556E+01
 -0.902380476E+01
 -0.901980396E+01
 -0.901580316E+01
 -0.901180236E+01
 -0.900780156E+01
 -0.900380076E+01
 -0.899979996E+01
 -0.899579916E+01
 -0.899179836E+01
 -0.898779756E+01
 -0.898379676E+01
 -0.897979596E+01
 -0.897579516E+01
 -0.897179436E+01
 -0.896779356E+01
 -0.896379276E+01
 -0.895979196E+01
 -0.895579116E+01
 -0.895179036E+01
 -0.894778956E+01
 -0.894378876E+01
 -0.893978796E+01
 -0.893578716E+01
 -0.893178636E+01
 -0.892778556E+01
 -0.892378476E+01
 -0.891978396E+01
 -0.891578316E+01
 -0.891178236E+01
 -0.890778156E+01
 -0.890378076E+01
 -0.889977996E+01
 -0.889577916E+01
 -0.889177836E+01
 -0.888777756E+01
 -0.888377676E+01
 -0.887977596E+01
 -0.887577516E+01
 -0.887177435E+01
 -0.886777355E+01
 -0.886377275E+01
 -0.885977195E+01
 -0.885577115E+01
 -0.885177035E+01
 -0.884776955E+01
 -0.884376875E+01
 -0.883976795E+01
 -0.883576715E+01
 -0.883176635E+01
 -0.882776555E+01
 -0.882376475E+01
 -0.881976395E+01
 -0.881576315E+01
 -0.881176235E+01
 -0.880776155E+01
 -0.880376075E+01
 -0.879975995E+01
 -0.879575915E+01
 -0.879175835E+01
 -0.878775755E+01
 -0.878375675E+01
 -0.877975595E+01
 -0.877575515E+01
 -0.877175435E+01
 -0.876775355E+01
 -0.876375275E+01
 -0.875975195E+01
 -0.875575115E+01
 -0.875175035E+01
 -0.874774955E+01
 -0.874374875E+01
 -0.873974795E+01
 -0.873574715E+01
 -0.873174635E+01
 -0.872774555E+01
 -0.872374475E+01
 -0.871974395E+01
 -0.871574315E+01
 -0.871174235E+01
 -0.870774155E+01
 -0.870374075E+01
 -0.869973995E+01
 -0.869573915E+01
 -0.869173835E+01
 -0.868773755E+01
 -0.868373675E+01
 -0.867973595E+01
 -0.867573515E+01
 -0.867173435E+01
 -0.866773355E+01
 -0.866373275E+01
 -0.865973195E+01
 -0.865573115E+01
 -0.865173035E+01
 -0.864772955E+01
 -0.864372875E+01
 -0.863972795E+01
 -0.863572715E+01
 -0.863172635E+01
 -0.862772555E+01
 -0.862372474E+01
 -0.861972394E+01
 -0.861572314E+01
 -0.861172234E+01
 -0.860772154E+01
 -0.860372074E+01
 -0.859971994E+01
 -0.859571914E+01
 -0.859171834E+01
 -0.858771754E+01
 -0.858371674E+01
 -0.857971594E+01
 -0.857571514E+01
 -0.857171434E+01
 -0.856771354E+01
 -0.856371274E+01
 -0.855971194E+01
 -0.855571114E+01
 -0.855171034E+01
 -0.854770954E+01
 -0.854370874E+01
 -0.853970794E+01
 -0.853570714E+01
 -0.853170634E+01
 -0.852770554E+01
 -0.852370474E+01
 -0.851970394E+01
 -0.851570314E+01
 -0.851170234E+01
 -0.850770154E+01
 -0.850370074E+01
 -0.849969994E+01
 -0.849569914E+01
 -0.849169834E+01
 -0.848769754E+01
 -0.848369674E+01
 -0.847969594E+01
 -0.847569514E+01
 -0.847169434E+01
 -0.846769354E+01
 -0.846369274E+01
 -0.845969194E+01
 -0.845569114E+01
 -0.845169034E+01
 -0.844768954E+01
 -0.844368874E+01
 -0.843968794E+01
 -0.843568714E+01
 -0.843168634E+01
 -0.842768554E+01
 -0.842368474E+01
 -0.841968394E+01
 -0.841568314E+01
 -0.841168234E+01
 -0.840768154E+01
 -0.840368074E+01
 -0.839967994E+01
 -0.839567914E+01
 -0.839167834E+01
 -0.838767754E+01
 -0.838367674E+01
 -0.837967594E+01
 -0.837567514E+01
 -0.837167433E+01
 -0.836767353E+01
 -0.836367273E+01
 -0.835967193E+01
 -0.835567113E+01
 -0.835167033E+01
 -0.834766953E+01
 -0.834366873E+01
 -0.833966793E+01
 -0.833566713E+01
 -0.833166633E+01
 -0.832766553E+01
 -0.832366473E+01
 -0.831966393E+01
 -0.831566313E+01
 -0.831166233E+01
 -0.830766153E+01
 -0.830366073E+01
 -0.829965993E+01
 -0.829565913E+01
 -0.829165833E+01
 -0.828765753E+01
 -0.828365673E+01
 -0.827965593E+01
 -0.827565513E+01
 -0.827165433E+01
 -0.826765353E+01
 -0.826365273E+01
 -0.825965193E+01
 -0.825565113E+01
 -0.825165033E+01
 -0.824764953E+01
 -0.824364873E+01
 -0.823964793E+01
 -0.823564713E+01
 -0.823164633E+01
 -0.822764553E+01
 -0.822364473E+01
 -0.821964393E+01
 -0.821564313E+01
 -0.821164233E+01
 -0.820764153E+01
 -0.820364073E+01
 -0.819963993E+01
 -0.819563913E+01
 -0.819163833E+01
 -0.818763753E+01
 -0.818363673E+01
 -0.817963593E+01
 -0.817563513E+01
 -0.817163433E+01
 -0.816763353E+01
 -0.816363273E+01
 -0.815963193E+01
 -0.815563113E+01
 -0.815163033E+01
 -0.814762953E+01
 -0.814362873E+01
 -0.813962793E+01
 -0.813562713E+01
 -0.813162633E+01
 -0.812762553E+01
 -0.812362472E+01
 -0.811962392E+01
 -0.811562312E+01
 -0.811162232E+01
 -0.810762152E+01
 -0.810362072E+01
 -0.809961992E+01
 -0.809561912E+01
 -0.809161832E+01
 -0.808761752E+01
 -0.808361672E+01
 -0.807961592E+01
 -0.807561512E+01
 -0.807161432E+01
 -0.806761352E+01
 -0.806361272E+01
 -0.805961192E+01
 -0.805561112E+01
 -0.805161032E+01
 -0.804760952E+01
 -0.804360872E+01
 -0.803960792E+01
 -0.803560712E+01
 -0.803160632E+01
 -0.802760552E+01
 -0.802360472E+01
 -0.801960392E+01
 -0.801560312E+01
 -0.801160232E+01
 -0.800760152E+01
 -0.800360072E+01
 -0.799959992E+01
 -0.799559912E+01
 -0.799159832E+01
 -0.798759752E+01
 -0.798359672E+01
 -0.797959592E+01
 -0.797559512E+01
 -0.797159432E+01
 -0.796759352E+01
 -0.796359272E+01
 -0.795959192E+01
 -0.795559112E+01
 -0.795159032E+01
 -0.794758952E+01
 -0.794358872E+01
 -0.793958792E+01
 -0.793558712E+01
 -0.793158632E+01
 -0.792758552E+01
 -0.792358472E+01
 -0.791958392E+01
 -0.791558312E+01
 -0.791158232E+01
 -0.790758152E+01
 -0.790358072E+01
 -0.789957992E+01
 -0.789557912E+01
 -0.789157832E+01
 -0.788757752E+01
 -0.788357672E+01
 -0.787957592E+01
 -0.787557512E+01
 -0.787157431E+01
 -0.786757351E+01
 -0.786357271E+01
 -0.785957191E+01
 -0.785557111E+01
 -0.785157031E+01
 -0.784756951E+01
 -0.784356871E+01
 -0.783956791E+01
 -0.783556711E+01
 -0.783156631E+01
 -0.782756551E+01
 -0.782356471E+01
 -0.781956391E+01
 -0.781556311E+01
 -0.781156231E+01
 -0.780756151E+01
 -0.780356071E+01
 -0.779955991E+01
 -0.779555911E+01
 -0.779155831E+01
 -0.778755751E+01
 -0.778355671E+01
 -0.777955591E+01
 -0.777555511E+01
 -0.777155431E+01
 -0.776755351E+01
 -0.776355271E+01
 -0.775955191E+01
 -0.775555111E+01
 -0.775155031E+01
 -0.774754951E+01
 -0.774354871E+01
 -0.773954791E+01
 -0.773554711E+01
 -0.773154631E+01
 -0.772754551E+01
 -0.772354471E+01
 -0.771954391E+01
 -0.771554311E+01
 -0.771154231E+01
 -0.770754151E+01
 -0.770354071E+01
 -0.769953991E+01
 -0.769553911E+01
 -0.769153831E+01
 -0.768753751E+01
 -0.768353671E+01
 -0.767953591E+01
 -0.767553511E+01
 -0.767153431E+01
 -0.766753351E+01
 -0.766353271E+01
 -0.765953191E+01
 -0.765553111E+01
 -0.765153031E+01
 -0.764752951E+01
 -0.764352871E+01
 -0.763952791E+01
 -0.763552711E+01
 -0.763152631E+01
 -0.762752551E+01
 -0.762352470E+01
 -0.761952390E+01
 -0.761552310E+01
 -0.761152230E+01
 -0.760752150E+01
 -0.760352070E+01
 -0.759951990E+01
 -0.759551910E+01
 -0.759151830E+01
 -0.758751750E+01
 -0.758351670E+01
 -0.757951590E+01
 -0.757551510E+01
 -0.757151430E+01
 -0.756751350E+01
 -0.756351270E+01
 -0.755951190E+01
 -0.755551110E+01
 -0.755151030E+01
 -0.754750950E+01
 -0.754350870E+01
 -0.753950790E+01
 -0.753550710E+01
 -0.753150630E+01
 -0.752750550E+01
 -0.752350470E+01
 -0.751950390E+01
 -0.751550310E+01
 -0.751150230E+01
 -0.750750150E+01
 -0.750350070E+01
 -0.749949990E+01
 -0.749549910E+01
 -0.749149830E+01
 -0.748749750E+01
 -0.748349670E+01
 -0.747949590E+01
 -0.747549510E+01
 -0.747149430E+01
 -0.746749350E+01
 -0.746349270E+01
 -0.745949190E+01
 -0.745549110E+01
 -0.745149030E+01
 -0.744748950E+01
 -0.744348870E+01
 -0.743948790E+01
 -0.743548710E+01
 -0.743148630E+01
 -0.742748550E+01
 -0.742348470E+01
 -0.741948390E+01
 -0.741548310E+01
 -0.741148230E+01
 -0.740748150E+01
 -0.740348070E+01
 -0.739947990E+01
 -0.739547910E+01
 -0.739147830E+01
 -0.738747750E+01
 -0.738347670E+01
 -0.737947590E+01
 -0.737547510E+01
 -0.737147429E+01
 -0.736747349E+01
 -0.736347269E+01
 -0.735947189E+01
 -0.735547109E+01
 -0.735147029E+01
 -0.734746949E+01
 -0.734346869E+01
 -0.733946789E+01
 -0.733546709E+01
 -0.733146629E+01
 -0.732746549E+01
 -0.732346469E+01
 -0.731946389E+01
 -0.731546309E+01
 -0.731146229E+01
 -0.730746149E+01
 -0.730346069E+01
 -0.729945989E+01
 -0.729545909E+01
 -0.729145829E+01
 -0.728745749E+01
 -0.728345669E+01
 -0.727945589E+01
 -0.727545509E+01
 -0.727145429E+01
 -0.726745349E+01
 -0.726345269E+01
 -0.725945189E+01
 -0.725545109E+01
 -0.725145029E+01
 -0.724744949E+01
 -0.724344869E+01
 -0.723944789E+01
 -0.723544709E+01
 -0.723144629E+01
 -0.722744549E+01
 -0.722344469E+01
 -0.721944389E+01
 -0.721544309E+01
 -0.721144229E+01
 -0.720744149E+01
 -0.720344069E+01
 -0.719943989E+01
 -0.719543909E+01
 -0.719143829E+01
 -0.718743749E+01
 -0.718343669E+01
 -0.717943589E+01
 -0.717543509E+01
 -0.717143429E+01
 -0.716743349E+01
 -0.716343269E+01
 -0.715943189E+01
 -0.715543109E+01
 -0.715143029E+01
 -0.714742949E+01
 -0.714342869E+01
 -0.713942789E+01
 -0.713542709E+01
 -0.713142629E+01
 -0.712742549E+01
 -0.712342468E+01
 -0.711942388E+01
 -0.711542308E+01
 -0.711142228E+01
 -0.710742148E+01
 -0.710342068E+01
 -0.709941988E+01
 -0.709541908E+01
 -0.709141828E+01
 -0.708741748E+01
 -0.708341668E+01
 -0.707941588E+01
 -0.707541508E+01
 -0.707141428E+01
 -0.706741348E+01
 -0.706341268E+01
 -0.705941188E+01
 -0.705541108E+01
 -0.705141028E+01
 -0.704740948E+01
 -0.704340868E+01
 -0.703940788E+01
 -0.703540708E+01
 -0.703140628E+01
 -0.702740548E+01
 -0.702340468E+01
 -0.701940388E+01
 -0.701540308E+01
 -0.701140228E+01
 -0.700740148E+01
 -0.700340068E+01
 -0.699939988E+01
 -0.699539908E+01
 -0.699139828E+01
 -0.698739748E+01
 -0.698339668E+01
 -0.697939588E+01
 -0.697539508E+01
 -0.697139428E+01
 -0.696739348E+01
 -0.696339268E+01
 -0.695939188E+01
 -0.695539108E+01
 -0.695139028E+01
 -0.694738948E+01
 -0.694338868E+01
 -0.693938788E+01
 -0.693538708E+01
 -0.693138628E+01
 -0.692738548E+01
 -0.692338468E+01
 -0.691938388E+01
 -0.691538308E+01
 -0.691138228E+01
 -0.690738148E+01
 -0.690338068E+01
 -0.689937988E+01
 -0.689537908E+01
 -0.689137828E+01
 -0.688737748E+01
 -0.688337668E+01
 -0.687937588E+01
 -0.687537508E+01
 -0.687137427E+01
 -0.686737347E+01
 -0.686337267E+01
 -0.685937187E+01
 -0.685537107E+01
 -0.685137027E+01
 -0.684736947E+01
 -0.684336867E+01
 -0.683936787E+01
 -0.683536707E+01
 -0.683136627E+01
 -0.682736547E+01
 -0.682336467E+01
 -0.681936387E+01
 -0.681536307E+01
 -0.681136227E+01
 -0.680736147E+01
 -0.680336067E+01
 -0.679935987E+01
 -0.679535907E+01
 -0.679135827E+01
 -0.678735747E+01
 -0.678335667E+01
 -0.677935587E+01
 -0.677535507E+01
 -0.677135427E+01
 -0.676735347E+01
 -0.676335267E+01
 -0.675935187E+01
 -0.675535107E+01
 -0.675135027E+01
 -0.674734947E+01
 -0.674334867E+01
 -0.673934787E+01
 -0.673534707E+01
 -0.673134627E+01
 -0.672734547E+01
 -0.672334467E+01
 -0.671934387E+01
 -0.671534307E+01
 -0.671134227E+01
 -0.670734147E+01
 -0.670334067E+01
 -0.669933987E+01
 -0.669533907E+01
 -0.669133827E+01
 -0.668733747E+01
 -0.668333667E+01
 -0.667933587E+01
 -0.667533507E+01
 -0.667133427E+01
 -0.666733347E+01
 -0.666333267E+01
 -0.665933187E+01
 -0.665533107E+01
 -0.665133027E+01
 -0.664732947E+01
 -0.664332867E+01
 -0.663932787E+01
 -0.663532707E+01
 -0.663132627E+01
 -0.662732547E+01
 -0.662332466E+01
 -0.661932386E+01
 -0.661532306E+01
 -0.661132226E+01
 -0.660732146E+01
 -0.660332066E+01
 -0.659931986E+01
 -0.659531906E+01
 -0.659131826E+01
 -0.658731746E+01
 -0.658331666E+01
 -0.657931586E+01
 -0.657531506E+01
 -0.657131426E+01
 -0.656731346E+01
 -0.656331266E+01
 -0.655931186E+01
 -0.655531106E+01
 -0.655131026E+01
 -0.654730946E+01
 -0.654330866E+01
 -0.653930786E+01
 -0.653530706E+01
 -0.653130626E+01
 -0.652730546E+01
 -0.652330466E+01
 -0.651930386E+01
 -0.651530306E+01
 -0.651130226E+01
 -0.650730146E+01
 -0.650330066E+01
 -0.649929986E+01
 -0.649529906E+01
 -0.649129826E+01
 -0.648729746E+01
 -0.648329666E+01
 -0.647929586E+01
 -0.647529506E+01
 -0.647129426E+01
 -0.646729346E+01
 -0.646329266E+01
 -0.645929186E+01
 -0.645529106E+01
 -0.645129026E+01
 -0.644728946E+01
 -0.644328866E+01
 -0.643928786E+01
 -0.643528706E+01
 -0.643128626E+01
 -0.642728546E+01
 -0.642328466E+01
 -0.641928386E+01
 -0.641528306E+01
 -0.641128226E+01
 -0.640728146E+01
 -0.640328066E+01
 -0.639927986E+01
 -0.639527906E+01
 -0.639127826E+01
 -0.638727746E+01
 -0.638327666E+01
 -0.637927586E+01
 -0.637527506E+01
 -0.637127425E+01
 -0.636727345E+01
 -0.636327265E+01
 -0.635927185E+01
 -0.635527105E+01
 -0.635127025E+01
 -0.634726945E+01
 -0.634326865E+01
 -0.633926785E+01
 -0.633526705E+01
 -0.633126625E+01
 -0.632726545E+01
 -0.632326465E+01
 -0.631926385E+01
 -0.631526305E+01
 -0.631126225E+01
 -0.630726145E+01
 -0.630326065E+01
 -0.629925985E+01
 -0.629525905E+01
 -0.629125825E+01
 -0.628725745E+01
 -0.628325665E+01
 -0.627925585E+01
 -0.627525505E+01
 -0.627125425E+01
 -0.626725345E+01
 -0.626325265E+01
 -0.625925185E+01
 -0.625525105E+01
 -0.625125025E+01
 -0.624724945E+01
 -0.624324865E+01
 -0.623924785E+01
 -0.623524705E+01
 -0.623124625E+01
 -0.622724545E+01
 -0.622324465E+01
 -0.621924385E+01
 -0.621524305E+01
 -0.621124225E+01
 -0.620724145E+01
 -0.620324065E+01
 -0.619923985E+01
 -0.619523905E+01
 -0.619123825E+01
 -0.618723745E+01
 -0.618323665E+01
 -0.617923585E+01
 -0.617523505E+01
 -0.617123425E+01
 -0.616723345E+01
 -0.616323265E+01
 -0.615923185E+01
 -0.615523105E+01
 -0.615123025E+01
 -0.614722945E+01
 -0.614322865E+01
 -0.613922785E+01
 -0.613522705E+01
 -0.613122625E+01
 -0.612722545E+01
 -0.612322464E+01
 -0.611922384E+01
 -0.611522304E+01
 -0.611122224E+01
 -0.610722144E+01
 -0.610322064E+01
 -0.609921984E+01
 -0.609521904E+01
 -0.609121824E+01
 -0.608721744E+01
 -0.608321664E+01
 -0.607921584E+01
 -0.607521504E+01
 -0.607121424E+01
 -0.606721344E+01
 -0.606321264E+01
 -0.605921184E+01
 -0.605521104E+01
 -0.605121024E+01
 -0.604720944E+01
 -0.604320864E+01
 -0.603920784E+01
 -0.603520704E+01
 -0.603120624E+01
 -0.602720544E+01
 -0.602320464E+01
 -0.601920384E+01
 -0.601520304E+01
 -0.601120224E+01
 -0.600720144E+01
 -0.600320064E+01
 -0.599919984E+01
 -0.599519904E+01
 -0.599119824E+01
 -0.598719744E+01
 -0.598319664E+01
 -0.597919584E+01
 -0.597519504E+01
 -0.597119424E+01
 -0.596719344E+01
 -0.596319264E+01
 -0.595919184E+01
 -0.595519104E+01
 -0.595119024E+01
 -0.594718944E+01
 -0.594318864E+01
 -0.593918784E+01
 -0.593518704E+01
 -0.593118624E+01
 -0.592718544E+01
 -0.592318464E+01
 -0.591918384E+01
 -0.591518304E+01
 -0.591118224E+01
 -0.590718144E+01
 -0.590318064E+01
 -0.589917984E+01
 -0.589517904E+01
 -0.589117824E+01
 -0.588717744E+01
 -0.588317664E+01
 -0.587917584E+01
 -0.587517504E+01
 -0.587117423E+01
 -0.586717343E+01
 -0.586317263E+01
 -0.585917183E+01
 -0.585517103E+01
 -0.585117023E+01
 -0.584716943E+01
 -0.584316863E+01
 -0.583916783E+01
 -0.583516703E+01
 -0.583116623E+01
 -0.582716543E+01
 -0.582316463E+01
 -0.581916383E+01
 -0.581516303E+01
 -0.581116223E+01
 -0.580716143E+01
 -0.580316063E+01
 -0.579915983E+01
 -0.579515903E+01
 -0.579115823E+01
 -0.578715743E+01
 -0.578315663E+01
 -0.577915583E+01
 -0.577515503E+01
 -0.577115423E+01
 -0.576715343E+01
 -0.576315263E+01
 -0.575915183E+01
 -0.575515103E+01
 -0.575115023E+01
 -0.574714943E+01
 -0.574314863E+01
 -0.573914783E+01
 -0.573514703E+01
 -0.573114623E+01
 -0.572714543E+01
 -0.572314463E+01
 -0.571914383E+01
 -0.571514303E+01
 -0.571114223E+01
 -0.570714143E+01
 -0.570314063E+01
 -0.569913983E+01
 -0.569513903E+01
 -0.569113823E+01
 -0.568713743E+01
 -0.568313663E+01
 -0.567913583E+01
 -0.567513503E+01
 -0.567113423E+01
 -0.566713343E+01
 -0.566313263E+01
 -0.565913183E+01
 -0.565513103E+01
 -0.565113023E+01
 -0.564712943E+01
 -0.564312863E+01
 -0.563912783E+01
 -0.563512703E+01
 -0.563112623E+01
 -0.562712543E+01
 -0.562312462E+01
 -0.561912382E+01
 -0.561512302E+01
 -0.561112222E+01
 -0.560712142E+01
 -0.560312062E+01
 -0.559911982E+01
 -0.559511902E+01
 -0.559111822E+01
 -0.558711742E+01
 -0.558311662E+01
 -0.557911582E+01
 -0.557511502E+01
 -0.557111422E+01
 -0.556711342E+01
 -0.556311262E+01
 -0.555911182E+01
 -0.555511102E+01
 -0.555111022E+01
 -0.554710942E+01
 -0.554310862E+01
 -0.553910782E+01
 -0.553510702E+01
 -0.553110622E+01
 -0.552710542E+01
 -0.552310462E+01
 -0.551910382E+01
 -0.551510302E+01
 -0.551110222E+01
 -0.550710142E+01
 -0.550310062E+01
 -0.549909982E+01
 -0.549509902E+01
 -0.549109822E+01
 -0.548709742E+01
 -0.548309662E+01
 -0.547909582E+01
 -0.547509502E+01
 -0.547109422E+01
 -0.546709342E+01
 -0.546309262E+01
 -0.545909182E+01
 -0.545509102E+01
 -0.545109022E+01
 -0.544708942E+01
 -0.544308862E+01
 -0.543908782E+01
 -0.543508702E+01
 -0.543108622E+01
 -0.542708542E+01
 -0.542308462E+01
 -0.541908382E+01
 -0.541508302E+01
 -0.541108222E+01
 -0.540708142E+01
 -0.540308062E+01
 -0.539907982E+01
 -0.539507902E+01
 -0.539107822E+01
 -0.538707742E+01
 -0.538307662E+01
 -0.537907582E+01
 -0.537507502E+01
 -0.537107421E+01
 -0.536707341E+01
 -0.536307261E+01
 -0.535907181E+01
 -0.535507101E+01
 -0.535107021E+01
 -0.534706941E+01
 -0.534306861E+01
 -0.533906781E+01
 -0.533506701E+01
 -0.533106621E+01
 -0.532706541E+01
 -0.532306461E+01
 -0.531906381E+01
 -0.531506301E+01
 -0.531106221E+01
 -0.530706141E+01
 -0.530306061E+01
 -0.529905981E+01
 -0.529505901E+01
 -0.529105821E+01
 -0.528705741E+01
 -0.528305661E+01
 -0.527905581E+01
 -0.527505501E+01
 -0.527105421E+01
 -0.526705341E+01
 -0.526305261E+01
 -0.525905181E+01
 -0.525505101E+01
 -0.525105021E+01
 -0.524704941E+01
 -0.524304861E+01
 -0.523904781E+01
 -0.523504701E+01
 -0.523104621E+01
 -0.522704541E+01
 -0.522304461E+01
 -0.521904381E+01
 -0.521504301E+01
 -0.521104221E+01
 -0.520704141E+01
 -0.520304061E+01
 -0.519903981E+01
 -0.519503901E+01
 -0.519103821E+01
 -0.518703741E+01
 -0.518303661E+01
 -0.517903581E+01
 -0.517503501E+01
 -0.517103421E+01
 -0.516703341E+01
 -0.516303261E+01
 -0.515903181E+01
 -0.515503101E+01
 -0.515103021E+01
 -0.514702941E+01
 -0.514302861E+01
 -0.513902781E+01
 -0.513502701E+01
 -0.513102621E+01
 -0.512702541E+01
 -0.512302460E+01
 -0.511902380E+01
 -0.511502300E+01
 -0.511102220E+01
 -0.510702140E+01
 -0.510302060E+01
 -0.509901980E+01
 -0.509501900E+01
 -0.509101820E+01
 -0.508701740E+01
 -0.508301660E+01
 -0.507901580E+01
 -0.507501500E+01
 -0.507101420E+01
 -0.506701340E+01
 -0.506301260E+01
 -0.505901180E+01
 -0.505501100E+01
 -0.505101020E+01
 -0.504700940E+01
 -0.504300860E+01
 -0.503900780E+01
 -0.503500700E+01
 -0.503100620E+01
 -0.502700540E+01
 -0.502300460E+01
 -0.501900380E+01
 -0.501500300E+01
 -0.501100220E+01
 -0.500700140E+01
 -0.500300060E+01
 -0.499899980E+01
 -0.499499900E+01
 -0.499099820E+01
 -0.498699740E+01
 -0.498299660E+01
 -0.497899580E+01
 -0.497499500E+01
 -0.497099420E+01
 -0.496699340E+01
 -0.496299260E+01
 -0.495899180E+01
 -0.495499100E+01
 -0.495099020E+01
 -0.494698940E+01
 -0.494298860E+01
 -0.493898780E+01
 -0.493498700E+01
 -0.493098620E+01
 -0.492698540E+01
 -0.492298460E+01
 -0.491898380E+01
 -0.491498300E+01
 -0.491098220E+01
 -0.490698140E+01
 -0.490298060E+01
 -0.489897980E+01
 -0.489497900E+01
 -0.489097820E+01
 -0.488697740E+01
 -0.488297660E+01
 -0.487897580E+01
 -0.487497499E+01
 -0.487097419E+01
 -0.486697339E+01
 -0.486297259E+01
 -0.485897179E+01
 -0.485497099E+01
 -0.485097019E+01
 -0.484696939E+01
 -0.484296859E+01
 -0.483896779E+01
 -0.483496699E+01
 -0.483096619E+01
 -0.482696539E+01
 -0.482296459E+01
 -0.481896379E+01
 -0.481496299E+01
 -0.481096219E+01
 -0.480696139E+01
 -0.480296059E+01
 -0.479895979E+01
 -0.479495899E+01
 -0.479095819E+01
 -0.478695739E+01
 -0.478295659E+01
 -0.477895579E+01
 -0.477495499E+01
 -0.477095419E+01
 -0.476695339E+01
 -0.476295259E+01
 -0.475895179E+01
 -0.475495099E+01
 -0.475095019E+01
 -0.474694939E+01
 -0.474294859E+01
 -0.473894779E+01
 -0.473494699E+01
 -0.473094619E+01
 -0.472694539E+01
 -0.472294459E+01
 -0.471894379E+01
 -0.471494299E+01
 -0.471094219E+01
 -0.470694139E+01
 -0.470294059E+01
 -0.469893979E+01
 -0.469493899E+01
 -0.469093819E+01
 -0.468693739E+01
 -0.468293659E+01
 -0.467893579E+01
 -0.467493499E+01
 -0.467093419E+01
 -0.466693339E+01
 -0.466293259E+01
 -0.465893179E+01
 -0.465493099E+01
 -0.465093019E+01
 -0.464692939E+01
 -0.464292859E+01
 -0.463892779E+01
 -0.463492699E+01
 -0.463092619E+01
 -0.462692539E+01
 -0.462292458E+01
 -0.461892378E+01
 -0.461492298E+01
 -0.461092218E+01
 -0.460692138E+01
 -0.460292058E+01
 -0.459891978E+01
 -0.459491898E+01
 -0.459091818E+01
 -0.458691738E+01
 -0.458291658E+01
 -0.457891578E+01
 -0.457491498E+01
 -0.457091418E+01
 -0.456691338E+01
 -0.456291258E+01
 -0.455891178E+01
 -0.455491098E+01
 -0.455091018E+01
 -0.454690938E+01
 -0.454290858E+01
 -0.453890778E+01
 -0.453490698E+01
 -0.453090618E+01
 -0.452690538E+01
 -0.452290458E+01
 -0.451890378E+01
 -0.451490298E+01
 -0.451090218E+01
 -0.450690138E+01
 -0.450290058E+01
 -0.449889978E+01
 -0.449489898E+01
 -0.449089818E+01
 -0.448689738E+01
 -0.448289658E+01
 -0.447889578E+01
 -0.447489498E+01
 -0.447089418E+01
 -0.446689338E+01
 -0.446289258E+01
 -0.445889178E+01
 -0.445489098E+01
 -0.445089018E+01
 -0.444688938E+01
 -0.444288858E+01
 -0.443888778E+01
 -0.443488698E+01
 -0.443088618E+01
 -0.442688538E+01
 -0.442288458E+01
 -0.441888378E+01
 -0.441488298E+01
 -0.441088218E+01
 -0.440688138E+01
 -0.440288058E+01
 -0.439887978E+01
 -0.439487898E+01
 -0.439087818E+01
 -0.438687738E+01
 -0.438287658E+01
 -0.437887578E+01
 -0.437487497E+01
 -0.437087417E+01
 -0.436687337E+01
 -0.436287257E+01
 -0.435887177E+01
 -0.435487097E+01
 -0.435087017E+01
 -0.434686937E+01
 -0.434286857E+01
 -0.433886777E+01
 -0.433486697E+01
 -0.433086617E+01
 -0.432686537E+01
 -0.432286457E+01
 -0.431886377E+01
 -0.431486297E+01
 -0.431086217E+01
 -0.430686137E+01
 -0.430286057E+01
 -0.429885977E+01
 -0.429485897E+01
 -0.429085817E+01
 -0.428685737E+01
 -0.428285657E+01
 -0.427885577E+01
 -0.427485497E+01
 -0.427085417E+01
 -0.426685337E+01
 -0.426285257E+01
 -0.425885177E+01
 -0.425485097E+01
 -0.425085017E+01
 -0.424684937E+01
 -0.424284857E+01
 -0.423884777E+01
 -0.423484697E+01
 -0.423084617E+01
 -0.422684537E+01
 -0.422284457E+01
 -0.421884377E+01
 -0.421484297E+01
 -0.421084217E+01
 -0.420684137E+01
 -0.420284057E+01
 -0.419883977E+01
 -0.419483897E+01
 -0.419083817E+01
 -0.418683737E+01
 -0.418283657E+01
 -0.417883577E+01
 -0.417483497E+01
 -0.417083417E+01
 -0.416683337E+01
 -0.416283257E+01
 -0.415883177E+01
 -0.415483097E+01
 -0.415083017E+01
 -0.414682937E+01
 -0.414282857E+01
 -0.413882777E+01
 -0.413482697E+01
 -0.413082617E+01
 -0.412682537E+01
 -0.412282456E+01
 -0.411882376E+01
 -0.411482296E+01
 -0.411082216E+01
 -0.410682136E+01
 -0.410282056E+01
 -0.409881976E+01
 -0.409481896E+01
 -0.409081816E+01
 -0.408681736E+01
 -0.408281656E+01
 -0.407881576E+01
 -0.407481496E+01
 -0.407081416E+01
 -0.406681336E+01
 -0.406281256E+01
 -0.405881176E+01
 -0.405481096E+01
 -0.405081016E+01
 -0.404680936E+01
 -0.404280856E+01
 -0.403880776E+01
 -0.403480696E+01
 -0.403080616E+01
 -0.402680536E+01
 -0.402280456E+01
 -0.401880376E+01
 -0.401480296E+01
 -0.401080216E+01
 -0.400680136E+01
 -0.400280056E+01
 -0.399879976E+01
 -0.399479896E+01
 -0.399079816E+01
 -0.398679736E+01
 -0.398279656E+01
 -0.397879576E+01
 -0.397479496E+01
 -0.397079416E+01
 -0.396679336E+01
 -0.396279256E+01
 -0.395879176E+01
 -0.395479096E+01
 -0.395079016E+01
 -0.394678936E+01
 -0.394278856E+01
 -0.393878776E+01
 -0.393478696E+01
 -0.393078616E+01
 -0.392678536E+01
 -0.392278456E+01
 -0.391878376E+01
 -0.391478296E+01
 -0.391078216E+01
 -0.390678136E+01
 -0.390278056E+01
 -0.389877976E+01
 -0.389477896E+01
 -0.389077816E+01
 -0.388677736E+01
 -0.388277656E+01
 -0.387877576E+01
 -0.387477495E+01
 -0.387077415E+01
 -0.386677335E+01
 -0.386277255E+01
 -0.385877175E+01
 -0.385477095E+01
 -0.385077015E+01
 -0.384676935E+01
 -0.384276855E+01
 -0.383876775E+01
 -0.383476695E+01
 -0.383076615E+01
 -0.382676535E+01
 -0.382276455E+01
 -0.381876375E+01
 -0.381476295E+01
 -0.381076215E+01
 -0.380676135E+01
 -0.380276055E+01
 -0.379875975E+01
 -0.379475895E+01
 -0.379075815E+01
 -0.378675735E+01
 -0.378275655E+01
 -0.377875575E+01
 -0.377475495E+01
 -0.377075415E+01
 -0.376675335E+01
 -0.376275255E+01
 -0.375875175E+01
 -0.375475095E+01
 -0.375075015E+01
 -0.374674935E+01
 -0.374274855E+01
 -0.373874775E+01
 -0.373474695E+01
 -0.373074615E+01
 -0.372674535E+01
 -0.372274455E+01
 -0.371874375E+01
 -0.371474295E+01
 -0.371074215E+01
 -0.370674135E+01
 -0.370274055E+01
 -0.369873975E+01
 -0.369473895E+01
 -0.369073815E+01
 -0.368673735E+01
 -0.368273655E+01
 -0.367873575E+01
 -0.367473495E+01
 -0.367073415E+01
 -0.366673335E+01
 -0.366273255E+01
 -0.365873175E+01
 -0.365473095E+01
 -0.365073015E+01
 -0.364672935E+01
 -0.364272855E+01
 -0.363872775E+01
 -0.363472695E+01
 -0.363072615E+01
 -0.362672535E+01
 -0.362272454E+01
 -0.361872374E+01
 -0.361472294E+01
 -0.361072214E+01
 -0.360672134E+01
 -0.360272054E+01
 -0.359871974E+01
 -0.359471894E+01
 -0.359071814E+01
 -0.358671734E+01
 -0.358271654E+01
 -0.357871574E+01
 -0.357471494E+01
 -0.357071414E+01
 -0.356671334E+01
 -0.356271254E+01
 -0.355871174E+01
 -0.355471094E+01
 -0.355071014E+01
 -0.354670934E+01
 -0.354270854E+01
 -0.353870774E+01
 -0.353470694E+01
 -0.353070614E+01
 -0.352670534E+01
 -0.352270454E+01
 -0.351870374E+01
 -0.351470294E+01
 -0.351070214E+01
 -0.350670134E+01
 -0.350270054E+01
 -0.349869974E+01
 -0.349469894E+01
 -0.349069814E+01
 -0.348669734E+01
 -0.348269654E+01
 -0.347869574E+01
 -0.347469494E+01
 -0.347069414E+01
 -0.346669334E+01
 -0.346269254E+01
 -0.345869174E+01
 -0.345469094E+01
 -0.345069014E+01
 -0.344668934E+01
 -0.344268854E+01
 -0.343868774E+01
 -0.343468694E+01
 -0.343068614E+01
 -0.342668534E+01
 -0.342268454E+01
 -0.341868374E+01
 -0.341468294E+01
 -0.341068214E+01
 -0.340668134E+01
 -0.340268054E+01
 -0.339867974E+01
 -0.339467894E+01
 -0.339067814E+01
 -0.338667734E+01
 -0.338267654E+01
 -0.337867574E+01
 -0.337467493E+01
 -0.337067413E+01
 -0.336667333E+01