Executable      : siesta
Version         : 5.0.1
Architecture    : x86_64
Compiler version: GNU-12.4.0
Compiler flags  : -march=nocona -mtune=haswell -ftree-vectorize -fPIC -fstack-protector-strong -fno-plt -O2 -ffunction-sections -pipe -isystem <prefix>/include -fdebug-prefix-map=<prefix>/work=/usr/local/src/conda/siesta-5.0.1 -fdebug-prefix-map=<prefix>=/usr/local/src/conda-prefix -I<prefix>/lib -fallow-argument-mismatch -O3
Parallelisations: MPI
NetCDF support
NetCDF-4 support
NetCDF-4 MPI-IO support
Lua support
Native ELPA support
DFT-D3 support

Runtime information:
* Directory : /home/carlos/documents/siesta-hands-on/siesta-complete-guide/Chapter-8/energy_cutoff/ec_150
* Running on 2 nodes in parallel.
>> Start of run:   5-DEC-2024  17:11:34

                           *********************** 
                           *  WELCOME TO SIESTA  * 
                           *********************** 

 NOTE: Siesta V5 introduces some new defaults for basis-set generation
 NOTE: which might lead to slightly different numerical results.
 NOTE: Please see the manual for full details and compatibility measures.


reinit: Reading from file calc.fdf

reinit: -----------------------------------------------------------------------
reinit: System Name: Si bulk diamond
reinit: -----------------------------------------------------------------------
reinit: System Label: Si-diamond
reinit: -----------------------------------------------------------------------

initatom: Reading input for the pseudopotentials and atomic orbitals ----------
Species number:   1 Atomic number:   14 Label: Si

Ground state valence configuration (from tables):   3s02  3p02  3d00  4f00

---- Processing specs for species: Si
Reading pseudopotential information in unformatted form from:
  Si.vps

---- Pseudopotential check for Si

Pseudized shells:
3s( 2.00) rc: 1.23
3p( 2.00) rc: 1.43
Valence configuration for ps generation: (assumed as above)
For Si, standard SIESTA heuristics set lmxkb to 3
 (one more than the basis l, including polarization orbitals).
Use PS.lmax or PS.KBprojectors blocks to override.
Si pseudopotential only contains V_ls up to l=1 -- lmxkb reset.

<basis_specs>
===============================================================================
Si                   Z=  14    Mass=  28.090        Charge= 0.17977+309
Lmxo=2 Lmxkb= 1    BasisType=split      Semic=F
L=0  Nsemic=0  Cnfigmx=3
          i=1  nzeta=2  polorb=0  (3s)
            splnorm:   0.15000    
               vcte:    40.000    
               rinn:  -0.90000    
               qcoe:    0.0000    
               qyuk:    0.0000    
               qwid:   0.10000E-01
                rcs:    0.0000      0.0000    
            lambdas:    1.0000      1.0000    
L=1  Nsemic=0  Cnfigmx=3
          i=1  nzeta=2  polorb=1  (3p)  (to be polarized perturbatively)
            splnorm:   0.15000    
               vcte:    40.000    
               rinn:  -0.90000    
               qcoe:    0.0000    
               qyuk:    0.0000    
               qwid:   0.10000E-01
                rcs:    0.0000      0.0000    
            lambdas:    1.0000      1.0000    
L=2  Nsemic=0  Cnfigmx=3
          i=1  nzeta=0  polorb=0  (3d)  (perturbative polarization orbital) (from 3p)
-------------------------------------------------------------------------------
L=0  Nkbl=1  erefs: 0.17977+309
L=1  Nkbl=1  erefs: 0.17977+309
===============================================================================
</basis_specs>

Using PAO.SplitTailNorm
atom: Called for Si                    (Z =  14)
NOTE: Si pseudopotential has channels up to l= 1
NOTE: PAOs with higher l will be generated with V_local
Maximum radius (at nrval) set to   50.00000 8518

read_vps: Pseudopotential generation method:
read_vps: ATM4.2.7  Kerker                                  
Valence charge in pseudo generation:    4.00000

xc_check: Exchange-correlation functional:
xc_check: GGA Perdew, Burke & Ernzerhof 1996
V l=0 = -2*Zval/r beyond r=  2.8074
V l=1 = -2*Zval/r beyond r=  2.8074
All V_l potentials equal beyond r=  1.5163
This should be close to max(r_c) in ps generation
All pots = -2*Zval/r beyond r=  2.8074
Using large-core scheme (fit) for Vlocal

atom: Estimated core radius    2.80744

atom: Including non-local core corrections could be a good idea
Fit of Vlocal with continuous 2nd derivative
Fitting vlocal at       1.5209
Choosing vlocal chloc cutoff:  5726  3.054333
qtot up to nchloc:    3.99984030
atom: Maximum radius for chlocal:    3.05433
atom: Maximum radius for r*vlocal+2*Zval:    3.05433

KBgen: Kleinman-Bylander projectors: 
GHOST: No ghost state for L =  0
   l= 0   rc=  1.511703   el= -0.791527   Ekb=  6.361810   kbcos=  0.278083
GHOST: No ghost state for L =  1
   l= 1   rc=  1.575389   el= -0.300579   Ekb=  2.611741   kbcos=  0.260518

KBgen: Total number of Kleinman-Bylander projectors:   4
atom: -------------------------------------------------------------------------

atom: SANKEY-TYPE ORBITALS:
atom: Selected multiple-zeta basis: split     

SPLIT: Orbitals with angular momentum L= 0

SPLIT: Basis orbitals for state 3s

SPLIT: PAO cut-off radius determined from an
SPLIT: energy shift=  0.010000 Ry
Split based on tail norm

   izeta = 1
                 lambda =    1.000000
                     rc =    5.403143
                 energy =   -0.779945
                kinetic =    0.563858
    potential(screened) =   -1.343803
       potential(ionic) =   -3.794934

   izeta = 2
                 rmatch =    3.854490
              splitnorm =    0.150000
                 energy =   -0.529540
                kinetic =    1.167421
    potential(screened) =   -1.696961
       potential(ionic) =   -4.291182

SPLIT: Orbitals with angular momentum L= 1

SPLIT: Basis orbitals for state 3p

SPLIT: PAO cut-off radius determined from an
SPLIT: energy shift=  0.010000 Ry
Split based on tail norm

   izeta = 1
                 lambda =    1.000000
                     rc =    6.843982
                 energy =   -0.289102
                kinetic =    0.857285
    potential(screened) =   -1.146387
       potential(ionic) =   -3.385088

   izeta = 2
                 rmatch =    4.952104
              splitnorm =    0.150000
                 energy =   -0.182759
                kinetic =    1.296336
    potential(screened) =   -1.479095
       potential(ionic) =   -3.923275
*Note: V_local used for l= 2

** Using vlocal for PAOs with L= 2

POLgen: Perturbative polarization orbital with L=  2

POLgen: Polarization orbital for state 3p
*Note: V_local used for lpol= 2

** Using vlocal for PAOs with L= 2
Split based on tail norm

   izeta = 1
                     rc =    6.843982
                 energy =    0.369369
                kinetic =    1.362956
    potential(screened) =   -0.993588
       potential(ionic) =   -3.078590
atom: Total number of Sankey-type orbitals: 13

atm_pop: Valence configuration (for local Pseudopot. screening):
 3s( 2.00)                                                            
 3p( 2.00)                                                            
 3d( 0.00)                                                            
Vna: chval, zval:    4.00000   4.00000

Vna:  Cut-off radius for the neutral-atom potential:   6.843982

atom: _________________________________________________________________________

prinput: Basis input 

PAO.BasisType split     

%block ChemicalSpeciesLabel
    1   14 Si                      # Species index, atomic number, species label
%endblock ChemicalSpeciesLabel

%block PAO.Basis                 # Define Basis set
# WARNING: This information might be incomplete!
Si                    2                    # Species label, number of l-shells
 n=3   0   2                         # n, l, Nzeta 
   5.403      3.854   
   1.000      1.000   
 n=3   1   2 P   1                   # n, l, Nzeta, Polarization, NzetaPol
   6.844      4.952   
   1.000      1.000   
%endblock PAO.Basis

prinput: ----------------------------------------------------------------------

Dumping basis to NetCDF file Si.ion.nc
coor:   Atomic-coordinates input format  =     Fractional

siesta: Atomic coordinates (Bohr) and species
siesta:      3.30702   3.30702   3.30702  1        1
siesta:      0.00000   0.00000   0.00000  1        2

siesta: System type = bulk      

initatomlists: Number of atoms, orbitals, and projectors:      2    26     8

siesta: ******************** Simulation parameters ****************************
siesta:
siesta: The following are some of the parameters of the simulation.
siesta: A complete list of the parameters used, including default values,
siesta: can be found in file out.fdf
siesta:
redata: Spin configuration                          = none
redata: Number of spin components                   = 1
redata: Time-Reversal Symmetry                      = T
redata: Spin spiral                                 = F
redata: Long output                                 =   F
redata: Number of Atomic Species                    =        1
redata: Charge density info will appear in .RHO file
redata: Write Mulliken Pop.                         = NO
redata: Matel table size (NRTAB)                    =     1024
redata: Mesh Cutoff                                 =   150.0000 Ry
redata: Net charge of the system                    =     0.0000 |e|
redata: Min. number of SCF Iter                     =        0
redata: Max. number of SCF Iter                     =      300
redata: SCF convergence failure will abort job
redata: SCF mix quantity                            = Hamiltonian
redata: Mix DM or H after convergence               =   F
redata: Recompute H after scf cycle                 =   F
redata: Mix DM in first SCF step                    =   T
redata: Write Pulay info on disk                    =   F
redata: New DM Occupancy tolerance                  = 0.000000000001
redata: No kicks to SCF
redata: DM Mixing Weight for Kicks                  =     0.5000
redata: Require Harris convergence for SCF          =   F
redata: Harris energy tolerance for SCF             =     0.000100 eV
redata: Require DM convergence for SCF              =   T
redata: DM tolerance for SCF                        =     0.000100
redata: Require EDM convergence for SCF             =   F
redata: EDM tolerance for SCF                       =     0.001000 eV
redata: Require H convergence for SCF               =   T
redata: Hamiltonian tolerance for SCF               =     0.001000 eV
redata: Require (free) Energy convergence for SCF   =   F
redata: (free) Energy tolerance for SCF             =     0.000100 eV
redata: Using DFT-D3 dispersion                     =   F
redata: Using Saved Data (generic)                  =   F
redata: Use continuation files for DM               =   T
redata: Neglect nonoverlap interactions             =   F
redata: Method of Calculation                       = Diagonalization
redata: Electronic Temperature                      =   299.9863 K
redata: Fix the spin of the system                  =   F
redata: Max. number of TDED Iter                    =        1
redata: Number of TDED substeps                     =        3
redata: Dynamics option                             = CG coord. optimization
redata: Variable cell                               =   T
redata: Use continuation files for CG               =   F
redata: Max atomic displ per move                   =     0.1058 Ang
redata: Maximum number of optimization moves        =       30
redata: Force tolerance                             =     0.0010 eV/Ang
redata: Stress tolerance                            =     1.0000 GPa
mix.SCF: Pulay mixing                            = Pulay
mix.SCF:    Variant                              = stable
mix.SCF:    History steps                        = 2
mix.SCF:    Linear mixing weight                 =     0.250000
mix.SCF:    Mixing weight                        =     0.250000
mix.SCF:    SVD condition                        = 0.1000E-07
redata: Save all siesta data in one NC              =   F
redata: ***********************************************************************

%block SCF.Mixers
  Pulay
%endblock SCF.Mixers

%block SCF.Mixer.Pulay
  # Mixing method
  method pulay
  variant stable

  # Mixing options
  weight 0.2500
  weight.linear 0.2500
  history 2
%endblock SCF.Mixer.Pulay

DM_history_depth set to one: no extrapolation allowed by default for geometry relaxation
Size of DM history Fstack: 1
Total number of electrons:     8.000000
Total ionic charge:     8.000000

* ProcessorY, Blocksize:    2  14


* Orbital distribution balance (max,min):    14    12

k-point displ. along   1 input, could be:     0.00    0.50
k-point displ. along   2 input, could be:     0.00    0.50
k-point displ. along   3 input, could be:     0.00    0.50
 Kpoints in:          144 . Kpoints trimmed:          132

siesta: k-grid: Number of k-points = 132
siesta: k-points from Monkhorst-Pack grid
siesta: k-cutoff (effective) =    14.849 Ang
siesta: k-point supercell and displacements
siesta: k-grid:     6     0     0      0.000
siesta: k-grid:     0     6     0      0.000
siesta: k-grid:     0     0     6      0.000

diag: Algorithm                                     = D&C
diag: Parallel over k                               =   F
diag: Use parallel 2D distribution                  =   F
diag: Parallel block-size                           = 14
diag: Parallel distribution                         =     1 x     2
diag: Used triangular part                          = Lower
diag: Absolute tolerance                            =  0.100E-15
diag: Orthogonalization factor                      =  0.100E-05
diag: Memory factor                                 =  1.0000

superc: Internal auxiliary supercell:     3 x     3 x     3  =      27
superc: Number of atoms, orbitals, and projectors:     54    702    216


ts: **************************************************************
ts: Save H and S matrices                           =    F
ts: Save DM and EDM matrices                        =    F
ts: Only save the overlap matrix S                  =    F
ts: **************************************************************

************************ Begin: TS CHECKS AND WARNINGS ************************
************************ End: TS CHECKS AND WARNINGS **************************


                     ====================================
                        Begin CG opt. move =      0
                     ====================================

superc: Internal auxiliary supercell:     3 x     3 x     3  =      27
superc: Number of atoms, orbitals, and projectors:     54    702    216

outcell: Unit cell vectors (Ang):
        0.000000    3.500000    3.500000
        3.500000    0.000000    3.500000
        3.500000    3.500000    0.000000

outcell: Cell vector modules (Ang)   :    4.949747    4.949747    4.949747
outcell: Cell angles (23,13,12) (deg):     60.0000     60.0000     60.0000
outcell: Cell volume (Ang**3)        :     85.7500
<dSpData1D:S at geom step 0
  <sparsity:sparsity for geom step 0
    nrows_g=26 nrows=14 sparsity=7.3817 nnzs=4990, refcount: 7>
  <dData1D:(new from dSpData1D) n=4990, refcount: 1>
refcount: 1>
new_DM -- step:     1
Initializing Density Matrix...

Attempting to read DM from file... Failed...
DM filled with atomic data:
<dSpData2D:DM initialized from atoms
  <sparsity:sparsity for geom step 0
    nrows_g=26 nrows=14 sparsity=7.3817 nnzs=4990, refcount: 8>
  <dData2D:DM n=4990 m=1, refcount: 1>
refcount: 1>
No. of atoms with KB's overlaping orbs in proc 0. Max # of overlaps:       8      61

InitMesh: MESH = 30 x 30 x 30 = 27000
InitMesh: Mesh cutoff (required, used) =   150.000   152.289 Ry
New grid distribution [1]: sub = 2
New grid distribution [2]: sub = 2
New grid distribution [3]: sub = 2
Setting up quadratic distribution...

stepf: Fermi-Dirac step function

siesta: Program's energy decomposition (eV):
siesta: Ebs     =       -64.983696
siesta: Eions   =       444.480597
siesta: Ena     =       181.138495
siesta: Ekin    =        66.923119
siesta: Enl     =        33.626575
siesta: Eso     =         0.000000
siesta: Edftu   =         0.000000
siesta: DEna    =         8.769313
siesta: DUscf   =         0.288632
siesta: DUext   =         0.000000
siesta: Ex      =       -49.887663
siesta: Ec      =        -6.979841
siesta: Exc     =       -56.867504
siesta: EbV     =         0.000000
siesta: eta*DQ  =         0.000000
siesta: Emadel  =         0.000000
siesta: Emeta   =         0.000000
siesta: Emolmec =         0.000000
siesta: Ekinion =         0.000000
siesta: Eharris =      -215.662027
siesta: Etot    =      -210.601966
siesta: FreeEng =      -210.606094

        iscf     Eharris(eV)        E_KS(eV)     FreeEng(eV)     dDmax    Ef(eV) dHmax(eV)
   scf:    1     -215.662027     -210.601966     -210.606094  0.706843 -4.349419  0.501451
timer: Routine,Calls,Time,% = IterSCF        1       0.274  23.70
   scf:    2     -210.613872     -210.608018     -210.612109  0.010001 -4.430283  0.344073
   scf:    3     -210.618514     -210.613727     -210.617653  0.021240 -4.604035  0.005382
   scf:    4     -210.613739     -210.613733     -210.617657  0.000245 -4.603579  0.004165
   scf:    5     -210.613749     -210.613741     -210.617661  0.000528 -4.602239  0.001796
   scf:    6     -210.613742     -210.613742     -210.617661  0.000073 -4.601744  0.001087
   scf:    7     -210.613742     -210.613742     -210.617661  0.000092 -4.600737  0.000832

SCF Convergence by DM+H criterion
max |DM_out - DM_in|         :     0.0000923436
max |H_out - H_in|      (eV) :     0.0008322248
SCF cycle converged after 7 iterations

Using DM_out to compute the final energy and forces
No. of atoms with KB's overlaping orbs in proc 0. Max # of overlaps:       8      61

siesta: E_KS(eV) =             -210.6137

siesta: E_KS - E_eggbox =      -210.6137

siesta: Atomic forces (eV/Ang):
----------------------------------------
   Tot    0.000106    0.000106    0.000106
----------------------------------------
   Max    0.000183
   Res    0.000140    sqrt( Sum f_i^2 / 3N )
----------------------------------------
   Max    0.000183    constrained

Stress tensor Voigt[x,y,z,yz,xz,xy] (kbar):      115.93      115.93      115.93        0.01        0.01        0.01
(Free)E + p*V (eV/cell)     -216.8226
Target enthalpy (eV/cell)     -210.6177

siesta: Stress tensor (static) (eV/Ang**3):
         0.072360    0.000007    0.000007
         0.000007    0.072360    0.000007
         0.000007    0.000007    0.072360

siesta: Pressure (static):       -115.93421918  kBar

siesta: Stress tensor (total) (eV/Ang**3):
         0.072360    0.000007    0.000007
         0.000007    0.072360    0.000007
         0.000007    0.000007    0.072360

siesta: Pressure (total):       -115.93421918  kBar

cgvc: No target stress found, assuming hydrostatic MD.TargetPressure.

cgvc: Target stress (kBar)
cgvc:        -0.000       0.000       0.000
cgvc:         0.000      -0.000       0.000
cgvc:         0.000       0.000      -0.000

                     ====================================
                        Begin CG opt. move =      1
                     ====================================
k-point displ. along   1 input, could be:     0.00    0.50
k-point displ. along   2 input, could be:     0.00    0.50
k-point displ. along   3 input, could be:     0.00    0.50
 Kpoints in:          144 . Kpoints trimmed:          132

siesta: k-grid: Number of k-points = 132
siesta: k-points from Monkhorst-Pack grid
siesta: k-cutoff (effective) =    14.668 Ang
siesta: k-point supercell and displacements
siesta: k-grid:     6     0     0      0.000
siesta: k-grid:     0     6     0      0.000
siesta: k-grid:     0     0     6      0.000

superc: Internal auxiliary supercell:     3 x     3 x     3  =      27
superc: Number of atoms, orbitals, and projectors:     54    702    216

outcell: Unit cell vectors (Ang):
       -0.000008    3.457223    3.457223
        3.457223   -0.000008    3.457223
        3.457223    3.457223   -0.000008

outcell: Cell vector modules (Ang)   :    4.889252    4.889252    4.889252
outcell: Cell angles (23,13,12) (deg):     60.0002     60.0002     60.0002
outcell: Cell volume (Ang**3)        :     82.6445
<dSpData1D:S at geom step 1
  <sparsity:sparsity for geom step 1
    nrows_g=26 nrows=14 sparsity=7.4349 nnzs=5026, refcount: 7>
  <dData1D:(new from dSpData1D) n=5026, refcount: 1>
refcount: 1>
new_DM -- step:     2
Re-using DM from previous geometries...
Number of DMs in history: 1
 DM extrapolation coefficients: 
1   1.00000
New DM after history re-use:
<dSpData2D:SpM extrapolated using coords
  <sparsity:sparsity for geom step 1
    nrows_g=26 nrows=14 sparsity=7.4349 nnzs=5026, refcount: 9>
  <dData2D:(temp array for extrapolation) n=5026 m=1, refcount: 1>
refcount: 1>
Note: For starting DM, Qtot, Tr[D*S] =          8.00000000          8.07827844
No. of atoms with KB's overlaping orbs in proc 0. Max # of overlaps:       8      61

InitMesh: MESH = 30 x 30 x 30 = 27000
InitMesh: Mesh cutoff (required, used) =   150.000   156.081 Ry
New grid distribution [1]: sub = 2
New grid distribution [2]: sub = 2
New grid distribution [3]: sub = 2
Setting up quadratic distribution...

        iscf     Eharris(eV)        E_KS(eV)     FreeEng(eV)     dDmax    Ef(eV) dHmax(eV)
   scf:    1     -210.794061     -210.843262     -210.846223  0.024670 -4.612685  0.027016
   scf:    2     -210.843230     -210.843249     -210.846241  0.001445 -4.592274  0.005165
   scf:    3     -210.843260     -210.843254     -210.846241  0.000236 -4.595285  0.000166
   scf:    4     -210.843254     -210.843254     -210.846241  0.000011 -4.595253  0.000114

SCF Convergence by DM+H criterion
max |DM_out - DM_in|         :     0.0000114145
max |H_out - H_in|      (eV) :     0.0001141964
SCF cycle converged after 4 iterations

Using DM_out to compute the final energy and forces
No. of atoms with KB's overlaping orbs in proc 0. Max # of overlaps:       8      61

siesta: E_KS(eV) =             -210.8433

siesta: Atomic forces (eV/Ang):
----------------------------------------
   Tot    0.000095    0.000095    0.000095
----------------------------------------
   Max    0.000155
   Res    0.000117    sqrt( Sum f_i^2 / 3N )
----------------------------------------
   Max    0.000155    constrained

Stress tensor Voigt[x,y,z,yz,xz,xy] (kbar):      119.88      119.88      119.88        0.01        0.01        0.01
(Free)E + p*V (eV/cell)     -217.0300
Target enthalpy (eV/cell)     -210.8462

siesta: Stress tensor (static) (eV/Ang**3):
         0.074823    0.000007    0.000007
         0.000007    0.074823    0.000007
         0.000007    0.000007    0.074823

siesta: Pressure (static):       -119.87991521  kBar

siesta: Stress tensor (total) (eV/Ang**3):
         0.074823    0.000007    0.000007
         0.000007    0.074823    0.000007
         0.000007    0.000007    0.074823

siesta: Pressure (total):       -119.87991521  kBar

                     ====================================
                        Begin CG opt. move =      2
                     ====================================
k-point displ. along   1 input, could be:     0.00    0.50
k-point displ. along   2 input, could be:     0.00    0.50
k-point displ. along   3 input, could be:     0.00    0.50
 Kpoints in:          144 . Kpoints trimmed:          132

siesta: k-grid: Number of k-points = 132
siesta: k-points from Monkhorst-Pack grid
siesta: k-cutoff (effective) =    14.377 Ang
siesta: k-point supercell and displacements
siesta: k-grid:     6     0     0      0.000
siesta: k-grid:     0     6     0      0.000
siesta: k-grid:     0     0     6      0.000

superc: Internal auxiliary supercell:     3 x     3 x     3  =      27
superc: Number of atoms, orbitals, and projectors:     54    702    216

outcell: Unit cell vectors (Ang):
       -0.000021    3.388780    3.388780
        3.388780   -0.000021    3.388780
        3.388780    3.388780   -0.000021

outcell: Cell vector modules (Ang)   :    4.792459    4.792459    4.792459
outcell: Cell angles (23,13,12) (deg):     60.0004     60.0004     60.0004
outcell: Cell volume (Ang**3)        :     77.8331
<dSpData1D:S at geom step 2
  <sparsity:sparsity for geom step 2
    nrows_g=26 nrows=14 sparsity=7.7544 nnzs=5242, refcount: 7>
  <dData1D:(new from dSpData1D) n=5242, refcount: 1>
refcount: 1>
new_DM -- step:     3
Re-using DM from previous geometries...
Number of DMs in history: 1
 DM extrapolation coefficients: 
1   1.00000
New DM after history re-use:
<dSpData2D:SpM extrapolated using coords
  <sparsity:sparsity for geom step 2
    nrows_g=26 nrows=14 sparsity=7.7544 nnzs=5242, refcount: 9>
  <dData2D:(temp array for extrapolation) n=5242 m=1, refcount: 1>
refcount: 1>
Note: For starting DM, Qtot, Tr[D*S] =          8.00000000          8.12778495
No. of atoms with KB's overlaping orbs in proc 0. Max # of overlaps:       8      61

InitMesh: MESH = 30 x 30 x 30 = 27000
InitMesh: Mesh cutoff (required, used) =   150.000   162.448 Ry
New grid distribution [1]: sub = 2
New grid distribution [2]: sub = 2
New grid distribution [3]: sub = 2
Setting up quadratic distribution...

        iscf     Eharris(eV)        E_KS(eV)     FreeEng(eV)     dDmax    Ef(eV) dHmax(eV)
   scf:    1     -211.118345     -211.213320     -211.215043  0.039936 -4.614236  0.044746
   scf:    2     -211.213358     -211.213346     -211.215092  0.002357 -4.580978  0.009317
   scf:    3     -211.213357     -211.213352     -211.215095  0.000399 -4.585865  0.000390
   scf:    4     -211.213352     -211.213352     -211.215095  0.000024 -4.585815  0.000205

SCF Convergence by DM+H criterion
max |DM_out - DM_in|         :     0.0000237109
max |H_out - H_in|      (eV) :     0.0002053314
SCF cycle converged after 4 iterations

Using DM_out to compute the final energy and forces
No. of atoms with KB's overlaping orbs in proc 0. Max # of overlaps:       8      61

siesta: E_KS(eV) =             -211.2134

siesta: Atomic forces (eV/Ang):
----------------------------------------
   Tot    0.000071    0.000071    0.000071
----------------------------------------
   Max    0.000091
   Res    0.000066    sqrt( Sum f_i^2 / 3N )
----------------------------------------
   Max    0.000091    constrained

Stress tensor Voigt[x,y,z,yz,xz,xy] (kbar):      125.75      125.75      125.75        0.01        0.01        0.01
(Free)E + p*V (eV/cell)     -217.3240
Target enthalpy (eV/cell)     -211.2151

siesta: Stress tensor (static) (eV/Ang**3):
         0.078487    0.000008    0.000008
         0.000008    0.078487    0.000008
         0.000008    0.000008    0.078487

siesta: Pressure (static):       -125.74952743  kBar

siesta: Stress tensor (total) (eV/Ang**3):
         0.078487    0.000008    0.000008
         0.000008    0.078487    0.000008
         0.000008    0.000008    0.078487

siesta: Pressure (total):       -125.74952743  kBar

                     ====================================
                        Begin CG opt. move =      3
                     ====================================
k-point displ. along   1 input, could be:     0.00    0.50
k-point displ. along   2 input, could be:     0.00    0.50
k-point displ. along   3 input, could be:     0.00    0.50
 Kpoints in:          144 . Kpoints trimmed:          132

siesta: k-grid: Number of k-points = 132
siesta: k-points from Monkhorst-Pack grid
siesta: k-cutoff (effective) =    14.063 Ang
siesta: k-point supercell and displacements
siesta: k-grid:     6     0     0      0.000
siesta: k-grid:     0     6     0      0.000
siesta: k-grid:     0     0     6      0.000

superc: Internal auxiliary supercell:     5 x     5 x     5  =     125
superc: Number of atoms, orbitals, and projectors:    250   3250   1000

outcell: Unit cell vectors (Ang):
       -0.000034    3.314689    3.314689
        3.314689   -0.000034    3.314689
        3.314689    3.314689   -0.000034

outcell: Cell vector modules (Ang)   :    4.687678    4.687678    4.687678
outcell: Cell angles (23,13,12) (deg):     60.0007     60.0007     60.0007
outcell: Cell volume (Ang**3)        :     72.8392
<dSpData1D:S at geom step 3
  <sparsity:sparsity for geom step 3
    nrows_g=26 nrows=14 sparsity=9.0148 nnzs=6094, refcount: 7>
  <dData1D:(new from dSpData1D) n=6094, refcount: 1>
refcount: 1>
new_DM -- step:     4
Re-using DM from previous geometries...
Number of DMs in history: 1
 DM extrapolation coefficients: 
1   1.00000
New DM after history re-use:
<dSpData2D:SpM extrapolated using coords
  <sparsity:sparsity for geom step 3
    nrows_g=26 nrows=14 sparsity=9.0148 nnzs=6094, refcount: 9>
  <dData2D:(temp array for extrapolation) n=6094 m=1, refcount: 1>
refcount: 1>
Note: For starting DM, Qtot, Tr[D*S] =          8.00000000          8.14206762
No. of atoms with KB's overlaping orbs in proc 0. Max # of overlaps:       8      65

InitMesh: MESH = 30 x 30 x 30 = 27000
InitMesh: Mesh cutoff (required, used) =   150.000   169.790 Ry
New grid distribution [1]: sub = 2
New grid distribution [2]: sub = 2
New grid distribution [3]: sub = 2
Setting up quadratic distribution...

        iscf     Eharris(eV)        E_KS(eV)     FreeEng(eV)     dDmax    Ef(eV) dHmax(eV)
   scf:    1     -211.485897     -211.615220     -211.616083  0.046396 -4.547983  0.050095
   scf:    2     -211.615336     -211.615286     -211.616147  0.002476 -4.511882  0.009736
   scf:    3     -211.615291     -211.615289     -211.616150  0.000405 -4.517033  0.000365
   scf:    4     -211.615289     -211.615289     -211.616150  0.000030 -4.516967  0.000222

SCF Convergence by DM+H criterion
max |DM_out - DM_in|         :     0.0000295448
max |H_out - H_in|      (eV) :     0.0002222890
SCF cycle converged after 4 iterations

Using DM_out to compute the final energy and forces
No. of atoms with KB's overlaping orbs in proc 0. Max # of overlaps:       8      65

siesta: E_KS(eV) =             -211.6153

siesta: Atomic forces (eV/Ang):
----------------------------------------
   Tot    0.000026    0.000026    0.000026
----------------------------------------
   Max    0.000373
   Res    0.000360    sqrt( Sum f_i^2 / 3N )
----------------------------------------
   Max    0.000373    constrained

Stress tensor Voigt[x,y,z,yz,xz,xy] (kbar):      131.42      131.42      131.42        0.01        0.01        0.01
(Free)E + p*V (eV/cell)     -217.5907
Target enthalpy (eV/cell)     -211.6161

siesta: Stress tensor (static) (eV/Ang**3):
         0.082024    0.000008    0.000008
         0.000008    0.082024    0.000008
         0.000008    0.000008    0.082024

siesta: Pressure (static):       -131.41708874  kBar

siesta: Stress tensor (total) (eV/Ang**3):
         0.082024    0.000008    0.000008
         0.000008    0.082024    0.000008
         0.000008    0.000008    0.082024

siesta: Pressure (total):       -131.41708874  kBar

                     ====================================
                        Begin CG opt. move =      4
                     ====================================
k-point displ. along   1 input, could be:     0.00    0.50
k-point displ. along   2 input, could be:     0.00    0.50
k-point displ. along   3 input, could be:     0.00    0.50
 Kpoints in:          144 . Kpoints trimmed:          132

siesta: k-grid: Number of k-points = 132
siesta: k-points from Monkhorst-Pack grid
siesta: k-cutoff (effective) =    13.749 Ang
siesta: k-point supercell and displacements
siesta: k-grid:     6     0     0      0.000
siesta: k-grid:     0     6     0      0.000
siesta: k-grid:     0     0     6      0.000

superc: Internal auxiliary supercell:     5 x     5 x     5  =     125
superc: Number of atoms, orbitals, and projectors:    250   3250   1000

outcell: Unit cell vectors (Ang):
       -0.000048    3.240597    3.240597
        3.240597   -0.000048    3.240597
        3.240597    3.240597   -0.000048

outcell: Cell vector modules (Ang)   :    4.582896    4.582896    4.582896
outcell: Cell angles (23,13,12) (deg):     60.0010     60.0010     60.0010
outcell: Cell volume (Ang**3)        :     68.0636
<dSpData1D:S at geom step 4
  <sparsity:sparsity for geom step 4
    nrows_g=26 nrows=14 sparsity=9.1746 nnzs=6202, refcount: 7>
  <dData1D:(new from dSpData1D) n=6202, refcount: 1>
refcount: 1>
new_DM -- step:     5
Re-using DM from previous geometries...
Number of DMs in history: 1
 DM extrapolation coefficients: 
1   1.00000
New DM after history re-use:
<dSpData2D:SpM extrapolated using coords
  <sparsity:sparsity for geom step 4
    nrows_g=26 nrows=14 sparsity=9.1746 nnzs=6202, refcount: 9>
  <dData2D:(temp array for extrapolation) n=6202 m=1, refcount: 1>
refcount: 1>
Note: For starting DM, Qtot, Tr[D*S] =          8.00000000          8.14612220
No. of atoms with KB's overlaping orbs in proc 0. Max # of overlaps:       8      65

InitMesh: MESH = 30 x 30 x 30 = 27000
InitMesh: Mesh cutoff (required, used) =   150.000   177.642 Ry
New grid distribution [1]: sub = 2
New grid distribution [2]: sub = 2
New grid distribution [3]: sub = 2
Setting up quadratic distribution...

        iscf     Eharris(eV)        E_KS(eV)     FreeEng(eV)     dDmax    Ef(eV) dHmax(eV)
   scf:    1     -211.854852     -212.013892     -212.014802  0.052821 -4.461296  0.054278
   scf:    2     -212.013983     -212.013947     -212.014880  0.002595 -4.419174  0.010412
   scf:    3     -212.013960     -212.013954     -212.014883  0.000422 -4.425183  0.000380
   scf:    4     -212.013954     -212.013954     -212.014883  0.000034 -4.425118  0.000245

SCF Convergence by DM+H criterion
max |DM_out - DM_in|         :     0.0000340748
max |H_out - H_in|      (eV) :     0.0002453782
SCF cycle converged after 4 iterations

Using DM_out to compute the final energy and forces
No. of atoms with KB's overlaping orbs in proc 0. Max # of overlaps:       8      65

siesta: E_KS(eV) =             -212.0140

siesta: Atomic forces (eV/Ang):
----------------------------------------
   Tot   -0.000010   -0.000010   -0.000010
----------------------------------------
   Max    0.000312
   Res    0.000307    sqrt( Sum f_i^2 / 3N )
----------------------------------------
   Max    0.000312    constrained

Stress tensor Voigt[x,y,z,yz,xz,xy] (kbar):      136.11      136.11      136.11        0.01        0.01        0.01
(Free)E + p*V (eV/cell)     -217.7969
Target enthalpy (eV/cell)     -212.0149

siesta: Stress tensor (static) (eV/Ang**3):
         0.084950    0.000009    0.000009
         0.000009    0.084950    0.000009
         0.000009    0.000009    0.084950

siesta: Pressure (static):       -136.10567884  kBar

siesta: Stress tensor (total) (eV/Ang**3):
         0.084950    0.000009    0.000009
         0.000009    0.084950    0.000009
         0.000009    0.000009    0.084950

siesta: Pressure (total):       -136.10567884  kBar

                     ====================================
                        Begin CG opt. move =      5
                     ====================================
k-point displ. along   1 input, could be:     0.00    0.50
k-point displ. along   2 input, could be:     0.00    0.50
k-point displ. along   3 input, could be:     0.00    0.50
 Kpoints in:          144 . Kpoints trimmed:          132

siesta: k-grid: Number of k-points = 132
siesta: k-points from Monkhorst-Pack grid
siesta: k-cutoff (effective) =    13.434 Ang
siesta: k-point supercell and displacements
siesta: k-grid:     6     0     0      0.000
siesta: k-grid:     0     6     0      0.000
siesta: k-grid:     0     0     6      0.000

superc: Internal auxiliary supercell:     5 x     5 x     5  =     125
superc: Number of atoms, orbitals, and projectors:    250   3250   1000

outcell: Unit cell vectors (Ang):
       -0.000062    3.166505    3.166505
        3.166505   -0.000062    3.166505
        3.166505    3.166505   -0.000062

outcell: Cell vector modules (Ang)   :    4.478115    4.478115    4.478115
outcell: Cell angles (23,13,12) (deg):     60.0013     60.0013     60.0013
outcell: Cell volume (Ang**3)        :     63.5014
<dSpData1D:S at geom step 5
  <sparsity:sparsity for geom step 5
    nrows_g=26 nrows=14 sparsity=9.3876 nnzs=6346, refcount: 7>
  <dData1D:(new from dSpData1D) n=6346, refcount: 1>
refcount: 1>
new_DM -- step:     6
Re-using DM from previous geometries...
Number of DMs in history: 1
 DM extrapolation coefficients: 
1   1.00000
New DM after history re-use:
<dSpData2D:SpM extrapolated using coords
  <sparsity:sparsity for geom step 5
    nrows_g=26 nrows=14 sparsity=9.3876 nnzs=6346, refcount: 9>
  <dData2D:(temp array for extrapolation) n=6346 m=1, refcount: 1>
refcount: 1>
Note: For starting DM, Qtot, Tr[D*S] =          8.00000000          8.15045455
No. of atoms with KB's overlaping orbs in proc 0. Max # of overlaps:       8      65

InitMesh: MESH = 30 x 30 x 30 = 27000
InitMesh: Mesh cutoff (required, used) =   150.000   186.051 Ry
New grid distribution [1]: sub = 2
New grid distribution [2]: sub = 2
New grid distribution [3]: sub = 2
Setting up quadratic distribution...

        iscf     Eharris(eV)        E_KS(eV)     FreeEng(eV)     dDmax    Ef(eV) dHmax(eV)
   scf:    1     -212.219087     -212.406026     -212.406490  0.058356 -4.443608  0.054579
   scf:    2     -212.406172     -212.406109     -212.406575  0.002441 -4.397822  0.009436
   scf:    3     -212.406116     -212.406113     -212.406578  0.000380 -4.404244  0.000314
   scf:    4     -212.406113     -212.406113     -212.406578  0.000032 -4.404190  0.000229

SCF Convergence by DM+H criterion
max |DM_out - DM_in|         :     0.0000316885
max |H_out - H_in|      (eV) :     0.0002292802
SCF cycle converged after 4 iterations

Using DM_out to compute the final energy and forces
No. of atoms with KB's overlaping orbs in proc 0. Max # of overlaps:       8      65

siesta: E_KS(eV) =             -212.4061

siesta: Atomic forces (eV/Ang):
----------------------------------------
   Tot   -0.000002   -0.000002   -0.000002
----------------------------------------
   Max    0.000601
   Res    0.000600    sqrt( Sum f_i^2 / 3N )
----------------------------------------
   Max    0.000601    constrained

Stress tensor Voigt[x,y,z,yz,xz,xy] (kbar):      138.50      138.50      138.50        0.01        0.01        0.01
(Free)E + p*V (eV/cell)     -217.8959
Target enthalpy (eV/cell)     -212.4066

siesta: Stress tensor (static) (eV/Ang**3):
         0.086444    0.000008    0.000008
         0.000008    0.086444    0.000008
         0.000008    0.000008    0.086444

siesta: Pressure (static):       -138.49890585  kBar

siesta: Stress tensor (total) (eV/Ang**3):
         0.086444    0.000008    0.000008
         0.000008    0.086444    0.000008
         0.000008    0.000008    0.086444

siesta: Pressure (total):       -138.49890585  kBar

                     ====================================
                        Begin CG opt. move =      6
                     ====================================
k-point displ. along   1 input, could be:     0.00    0.50
k-point displ. along   2 input, could be:     0.00    0.50
k-point displ. along   3 input, could be:     0.00    0.50
 Kpoints in:          144 . Kpoints trimmed:          132

siesta: k-grid: Number of k-points = 132
siesta: k-points from Monkhorst-Pack grid
siesta: k-cutoff (effective) =    13.120 Ang
siesta: k-point supercell and displacements
siesta: k-grid:     6     0     0      0.000
siesta: k-grid:     0     6     0      0.000
siesta: k-grid:     0     0     6      0.000

superc: Internal auxiliary supercell:     5 x     5 x     5  =     125
superc: Number of atoms, orbitals, and projectors:    250   3250   1000

outcell: Unit cell vectors (Ang):
       -0.000075    3.092414    3.092414
        3.092414   -0.000075    3.092414
        3.092414    3.092414   -0.000075

outcell: Cell vector modules (Ang)   :    4.373334    4.373334    4.373334
outcell: Cell angles (23,13,12) (deg):     60.0016     60.0016     60.0016
outcell: Cell volume (Ang**3)        :     59.1478
<dSpData1D:S at geom step 6
  <sparsity:sparsity for geom step 6
    nrows_g=26 nrows=14 sparsity=14.9438 nnzs=10102, refcount: 7>
  <dData1D:(new from dSpData1D) n=10102, refcount: 1>
refcount: 1>
new_DM -- step:     7
Re-using DM from previous geometries...
Number of DMs in history: 1
 DM extrapolation coefficients: 
1   1.00000
New DM after history re-use:
<dSpData2D:SpM extrapolated using coords
  <sparsity:sparsity for geom step 6
    nrows_g=26 nrows=14 sparsity=14.9438 nnzs=10102, refcount: 9>
  <dData2D:(temp array for extrapolation) n=10102 m=1, refcount: 1>
refcount: 1>
Note: For starting DM, Qtot, Tr[D*S] =          8.00000000          8.15516492
No. of atoms with KB's overlaping orbs in proc 0. Max # of overlaps:      17     161

InitMesh: MESH = 30 x 30 x 30 = 27000
InitMesh: Mesh cutoff (required, used) =   150.000   195.071 Ry
New grid distribution [1]: sub = 2
New grid distribution [2]: sub = 2
New grid distribution [3]: sub = 2
Setting up quadratic distribution...

        iscf     Eharris(eV)        E_KS(eV)     FreeEng(eV)     dDmax    Ef(eV) dHmax(eV)
   scf:    1     -212.564294     -212.780855     -212.781313  0.061631 -4.452224  0.055208
   scf:    2     -212.781017     -212.780947     -212.781404  0.002573 -4.405402  0.009989
   scf:    3     -212.780954     -212.780951     -212.781408  0.000363 -4.411996  0.000352
   scf:    4     -212.780951     -212.780951     -212.781408  0.000034 -4.411947  0.000248

SCF Convergence by DM+H criterion
max |DM_out - DM_in|         :     0.0000343672
max |H_out - H_in|      (eV) :     0.0002477368
SCF cycle converged after 4 iterations

Using DM_out to compute the final energy and forces
No. of atoms with KB's overlaping orbs in proc 0. Max # of overlaps:      17     161

siesta: E_KS(eV) =             -212.7810

siesta: Atomic forces (eV/Ang):
----------------------------------------
   Tot    0.000010    0.000010    0.000010
----------------------------------------
   Max    0.000900
   Res    0.000895    sqrt( Sum f_i^2 / 3N )
----------------------------------------
   Max    0.000900    constrained

Stress tensor Voigt[x,y,z,yz,xz,xy] (kbar):      136.55      136.55      136.55        0.00        0.00        0.00
(Free)E + p*V (eV/cell)     -217.8225
Target enthalpy (eV/cell)     -212.7814

siesta: Stress tensor (static) (eV/Ang**3):
         0.085228    0.000002    0.000002
         0.000002    0.085228    0.000002
         0.000002    0.000002    0.085228

siesta: Pressure (static):       -136.55035884  kBar

siesta: Stress tensor (total) (eV/Ang**3):
         0.085228    0.000002    0.000002
         0.000002    0.085228    0.000002
         0.000002    0.000002    0.085228

siesta: Pressure (total):       -136.55035884  kBar

                     ====================================
                        Begin CG opt. move =      7
                     ====================================
k-point displ. along   1 input, could be:     0.00    0.50
k-point displ. along   2 input, could be:     0.00    0.50
k-point displ. along   3 input, could be:     0.00    0.50
 Kpoints in:          144 . Kpoints trimmed:          132

siesta: k-grid: Number of k-points = 132
siesta: k-points from Monkhorst-Pack grid
siesta: k-cutoff (effective) =    12.806 Ang
siesta: k-point supercell and displacements
siesta: k-grid:     6     0     0      0.000
siesta: k-grid:     0     6     0      0.000
siesta: k-grid:     0     0     6      0.000

superc: Internal auxiliary supercell:     5 x     5 x     5  =     125
superc: Number of atoms, orbitals, and projectors:    250   3250   1000

outcell: Unit cell vectors (Ang):
       -0.000089    3.018322    3.018322
        3.018322   -0.000089    3.018322
        3.018322    3.018322   -0.000089

outcell: Cell vector modules (Ang)   :    4.268552    4.268552    4.268552
outcell: Cell angles (23,13,12) (deg):     60.0019     60.0019     60.0019
outcell: Cell volume (Ang**3)        :     54.9979
<dSpData1D:S at geom step 7
  <sparsity:sparsity for geom step 7
    nrows_g=26 nrows=14 sparsity=14.9438 nnzs=10102, refcount: 7>
  <dData1D:(new from dSpData1D) n=10102, refcount: 1>
refcount: 1>
new_DM -- step:     8
Re-using DM from previous geometries...
Number of DMs in history: 1
 DM extrapolation coefficients: 
1   1.00000
New DM after history re-use:
<dSpData2D:SpM extrapolated using coords
  <sparsity:sparsity for geom step 7
    nrows_g=26 nrows=14 sparsity=14.9438 nnzs=10102, refcount: 9>
  <dData2D:(temp array for extrapolation) n=10102 m=1, refcount: 1>
refcount: 1>
Note: For starting DM, Qtot, Tr[D*S] =          8.00000000          8.15987355
No. of atoms with KB's overlaping orbs in proc 0. Max # of overlaps:      17     161

InitMesh: MESH = 30 x 30 x 30 = 27000
InitMesh: Mesh cutoff (required, used) =   150.000   204.764 Ry
New grid distribution [1]: sub = 2
New grid distribution [2]: sub = 2
New grid distribution [3]: sub = 2
Setting up quadratic distribution...

        iscf     Eharris(eV)        E_KS(eV)     FreeEng(eV)     dDmax    Ef(eV) dHmax(eV)
   scf:    1     -212.881324     -213.126580     -213.126670  0.080549 -4.364915  0.055066
   scf:    2     -213.126758     -213.126680     -213.126764  0.003341 -4.315201  0.009949
   scf:    3     -213.126685     -213.126683     -213.126768  0.000438 -4.322078  0.000421
   scf:    4     -213.126683     -213.126683     -213.126768  0.000039 -4.322058  0.000298

SCF Convergence by DM+H criterion
max |DM_out - DM_in|         :     0.0000386999
max |H_out - H_in|      (eV) :     0.0002982713
SCF cycle converged after 4 iterations

Using DM_out to compute the final energy and forces
No. of atoms with KB's overlaping orbs in proc 0. Max # of overlaps:      17     161

siesta: E_KS(eV) =             -213.1267

siesta: Atomic forces (eV/Ang):
----------------------------------------
   Tot    0.000051    0.000051    0.000051
----------------------------------------
   Max    0.001951
   Res    0.001926    sqrt( Sum f_i^2 / 3N )
----------------------------------------
   Max    0.001951    constrained

Stress tensor Voigt[x,y,z,yz,xz,xy] (kbar):      129.81      129.81      129.81       -0.01       -0.01       -0.01
(Free)E + p*V (eV/cell)     -217.5827
Target enthalpy (eV/cell)     -213.1268

siesta: Stress tensor (static) (eV/Ang**3):
         0.081020   -0.000008   -0.000008
        -0.000008    0.081020   -0.000008
        -0.000008   -0.000008    0.081020

siesta: Pressure (static):       -129.80765559  kBar

siesta: Stress tensor (total) (eV/Ang**3):
         0.081020   -0.000008   -0.000008
        -0.000008    0.081020   -0.000008
        -0.000008   -0.000008    0.081020

siesta: Pressure (total):       -129.80765559  kBar

                     ====================================
                        Begin CG opt. move =      8
                     ====================================
k-point displ. along   1 input, could be:     0.00    0.50
k-point displ. along   2 input, could be:     0.00    0.50
k-point displ. along   3 input, could be:     0.00    0.50
 Kpoints in:          144 . Kpoints trimmed:          132

siesta: k-grid: Number of k-points = 132
siesta: k-points from Monkhorst-Pack grid
siesta: k-cutoff (effective) =    12.491 Ang
siesta: k-point supercell and displacements
siesta: k-grid:     6     0     0      0.000
siesta: k-grid:     0     6     0      0.000
siesta: k-grid:     0     0     6      0.000

superc: Internal auxiliary supercell:     5 x     5 x     5  =     125
superc: Number of atoms, orbitals, and projectors:    250   3250   1000

outcell: Unit cell vectors (Ang):
       -0.000103    2.944231    2.944231
        2.944231   -0.000103    2.944231
        2.944231    2.944231   -0.000103

outcell: Cell vector modules (Ang)   :    4.163771    4.163771    4.163771
outcell: Cell angles (23,13,12) (deg):     60.0023     60.0023     60.0023
outcell: Cell volume (Ang**3)        :     51.0468
<dSpData1D:S at geom step 8
  <sparsity:sparsity for geom step 8
    nrows_g=26 nrows=14 sparsity=14.9970 nnzs=10138, refcount: 7>
  <dData1D:(new from dSpData1D) n=10138, refcount: 1>
refcount: 1>
new_DM -- step:     9
Re-using DM from previous geometries...
Number of DMs in history: 1
 DM extrapolation coefficients: 
1   1.00000
New DM after history re-use:
<dSpData2D:SpM extrapolated using coords
  <sparsity:sparsity for geom step 8
    nrows_g=26 nrows=14 sparsity=14.9970 nnzs=10138, refcount: 9>
  <dData2D:(temp array for extrapolation) n=10138 m=1, refcount: 1>
refcount: 1>
Note: For starting DM, Qtot, Tr[D*S] =          8.00000000          8.16471426
No. of atoms with KB's overlaping orbs in proc 0. Max # of overlaps:      17     161

InitMesh: MESH = 30 x 30 x 30 = 27000
InitMesh: Mesh cutoff (required, used) =   150.000   215.197 Ry
New grid distribution [1]: sub = 2
New grid distribution [2]: sub = 2
New grid distribution [3]: sub = 2
Setting up quadratic distribution...

        iscf     Eharris(eV)        E_KS(eV)     FreeEng(eV)     dDmax    Ef(eV) dHmax(eV)
   scf:    1     -213.149373     -213.427348     -213.427348  0.078808 -4.059699  0.056650
   scf:    2     -213.427546     -213.427460     -213.427460  0.004398 -4.013820  0.009893
   scf:    3     -213.427469     -213.427465     -213.427465  0.000600 -4.020094  0.000352
   scf:    4     -213.427465     -213.427465     -213.427465  0.000030 -4.020049  0.000263

SCF Convergence by DM+H criterion
max |DM_out - DM_in|         :     0.0000295123
max |H_out - H_in|      (eV) :     0.0002626086
SCF cycle converged after 4 iterations

Using DM_out to compute the final energy and forces
No. of atoms with KB's overlaping orbs in proc 0. Max # of overlaps:      17     161

siesta: E_KS(eV) =             -213.4275

siesta: Atomic forces (eV/Ang):
----------------------------------------
   Tot    0.000085    0.000085    0.000085
----------------------------------------
   Max    0.002612
   Res    0.002569    sqrt( Sum f_i^2 / 3N )
----------------------------------------
   Max    0.002612    constrained

Stress tensor Voigt[x,y,z,yz,xz,xy] (kbar):      111.93      111.93      111.93       -0.03       -0.03       -0.03
(Free)E + p*V (eV/cell)     -216.9938
Target enthalpy (eV/cell)     -213.4275

siesta: Stress tensor (static) (eV/Ang**3):
         0.069864   -0.000021   -0.000021
        -0.000021    0.069864   -0.000021
        -0.000021   -0.000021    0.069864

siesta: Pressure (static):       -111.93498934  kBar

siesta: Stress tensor (total) (eV/Ang**3):
         0.069864   -0.000021   -0.000021
        -0.000021    0.069864   -0.000021
        -0.000021   -0.000021    0.069864

siesta: Pressure (total):       -111.93498934  kBar

                     ====================================
                        Begin CG opt. move =      9
                     ====================================
k-point displ. along   1 input, could be:     0.00    0.50
k-point displ. along   2 input, could be:     0.00    0.50
k-point displ. along   3 input, could be:     0.00    0.50
 Kpoints in:          144 . Kpoints trimmed:          132

siesta: k-grid: Number of k-points = 132
siesta: k-points from Monkhorst-Pack grid
siesta: k-cutoff (effective) =    12.177 Ang
siesta: k-point supercell and displacements
siesta: k-grid:     6     0     0      0.000
siesta: k-grid:     0     6     0      0.000
siesta: k-grid:     0     0     6      0.000

superc: Internal auxiliary supercell:     5 x     5 x     5  =     125
superc: Number of atoms, orbitals, and projectors:    250   3250   1000

outcell: Unit cell vectors (Ang):
       -0.000116    2.870139    2.870139
        2.870139   -0.000116    2.870139
        2.870139    2.870139   -0.000116

outcell: Cell vector modules (Ang)   :    4.058989    4.058989    4.058989
outcell: Cell angles (23,13,12) (deg):     60.0027     60.0027     60.0027
outcell: Cell volume (Ang**3)        :     47.2895
<dSpData1D:S at geom step 9
  <sparsity:sparsity for geom step 9
    nrows_g=26 nrows=14 sparsity=14.9970 nnzs=10138, refcount: 7>
  <dData1D:(new from dSpData1D) n=10138, refcount: 1>
refcount: 1>
new_DM -- step:    10
Re-using DM from previous geometries...
Number of DMs in history: 1
 DM extrapolation coefficients: 
1   1.00000
New DM after history re-use:
<dSpData2D:SpM extrapolated using coords
  <sparsity:sparsity for geom step 9
    nrows_g=26 nrows=14 sparsity=14.9970 nnzs=10138, refcount: 9>
  <dData2D:(temp array for extrapolation) n=10138 m=1, refcount: 1>
refcount: 1>
Note: For starting DM, Qtot, Tr[D*S] =          8.00000000          8.16661488
No. of atoms with KB's overlaping orbs in proc 0. Max # of overlaps:      17     161

InitMesh: MESH = 30 x 30 x 30 = 27000
InitMesh: Mesh cutoff (required, used) =   150.000   226.449 Ry
New grid distribution [1]: sub = 2
New grid distribution [2]: sub = 2
New grid distribution [3]: sub = 2
Setting up quadratic distribution...

        iscf     Eharris(eV)        E_KS(eV)     FreeEng(eV)     dDmax    Ef(eV) dHmax(eV)
   scf:    1     -213.330347     -213.657334     -213.657334  0.087077 -3.961447  0.058458
   scf:    2     -213.657568     -213.657468     -213.657468  0.005708 -3.915113  0.010582
   scf:    3     -213.657478     -213.657473     -213.657473  0.000823 -3.921931  0.000343
   scf:    4     -213.657473     -213.657473     -213.657473  0.000024 -3.921891  0.000257

SCF Convergence by DM+H criterion
max |DM_out - DM_in|         :     0.0000235127
max |H_out - H_in|      (eV) :     0.0002565425
SCF cycle converged after 4 iterations

Using DM_out to compute the final energy and forces
No. of atoms with KB's overlaping orbs in proc 0. Max # of overlaps:      17     161

siesta: E_KS(eV) =             -213.6575

siesta: Atomic forces (eV/Ang):
----------------------------------------
   Tot   -0.000102   -0.000102   -0.000102
----------------------------------------
   Max    0.003362
   Res    0.003312    sqrt( Sum f_i^2 / 3N )
----------------------------------------
   Max    0.003362    constrained

Stress tensor Voigt[x,y,z,yz,xz,xy] (kbar):       81.54       81.54       81.54       -0.07       -0.07       -0.07
(Free)E + p*V (eV/cell)     -216.0642
Target enthalpy (eV/cell)     -213.6575

siesta: Stress tensor (static) (eV/Ang**3):
         0.050893   -0.000041   -0.000041
        -0.000041    0.050893   -0.000041
        -0.000041   -0.000041    0.050893

siesta: Pressure (static):        -81.53887687  kBar

siesta: Stress tensor (total) (eV/Ang**3):
         0.050893   -0.000041   -0.000041
        -0.000041    0.050893   -0.000041
        -0.000041   -0.000041    0.050893

siesta: Pressure (total):        -81.53887687  kBar

                     ====================================
                        Begin CG opt. move =     10
                     ====================================
k-point displ. along   1 input, could be:     0.00    0.50
k-point displ. along   2 input, could be:     0.00    0.50
k-point displ. along   3 input, could be:     0.00    0.50
 Kpoints in:          144 . Kpoints trimmed:          132

siesta: k-grid: Number of k-points = 132
siesta: k-points from Monkhorst-Pack grid
siesta: k-cutoff (effective) =    11.863 Ang
siesta: k-point supercell and displacements
siesta: k-grid:     6     0     0      0.000
siesta: k-grid:     0     6     0      0.000
siesta: k-grid:     0     0     6      0.000

superc: Internal auxiliary supercell:     5 x     5 x     5  =     125
superc: Number of atoms, orbitals, and projectors:    250   3250   1000

outcell: Unit cell vectors (Ang):
       -0.000130    2.796047    2.796047
        2.796047   -0.000130    2.796047
        2.796047    2.796047   -0.000130

outcell: Cell vector modules (Ang)   :    3.954208    3.954208    3.954208
outcell: Cell angles (23,13,12) (deg):     60.0031     60.0031     60.0031
outcell: Cell volume (Ang**3)        :     43.7214
<dSpData1D:S at geom step 10
  <sparsity:sparsity for geom step 10
    nrows_g=26 nrows=14 sparsity=15.2633 nnzs=10318, refcount: 7>
  <dData1D:(new from dSpData1D) n=10318, refcount: 1>
refcount: 1>
new_DM -- step:    11
Re-using DM from previous geometries...
Number of DMs in history: 1
 DM extrapolation coefficients: 
1   1.00000
New DM after history re-use:
<dSpData2D:SpM extrapolated using coords
  <sparsity:sparsity for geom step 10
    nrows_g=26 nrows=14 sparsity=15.2633 nnzs=10318, refcount: 9>
  <dData2D:(temp array for extrapolation) n=10318 m=1, refcount: 1>
refcount: 1>
Note: For starting DM, Qtot, Tr[D*S] =          8.00000000          8.16718066
No. of atoms with KB's overlaping orbs in proc 0. Max # of overlaps:      17     161

InitMesh: MESH = 24 x 24 x 24 = 13824
InitMesh: Mesh cutoff (required, used) =   150.000   152.708 Ry
New grid distribution [1]: sub = 2
New grid distribution [2]: sub = 2
New grid distribution [3]: sub = 2
Setting up quadratic distribution...

        iscf     Eharris(eV)        E_KS(eV)     FreeEng(eV)     dDmax    Ef(eV) dHmax(eV)
   scf:    1     -213.399321     -213.790164     -213.790164  0.089108 -3.999080  0.059656
   scf:    2     -213.790436     -213.790320     -213.790320  0.007168 -3.959146  0.011117
   scf:    3     -213.790333     -213.790327     -213.790327  0.001082 -3.963645  0.000326
   scf:    4     -213.790327     -213.790327     -213.790327  0.000017 -3.963603  0.000246

SCF Convergence by DM+H criterion
max |DM_out - DM_in|         :     0.0000170204
max |H_out - H_in|      (eV) :     0.0002462340
SCF cycle converged after 4 iterations

Using DM_out to compute the final energy and forces
No. of atoms with KB's overlaping orbs in proc 0. Max # of overlaps:      17     161

siesta: E_KS(eV) =             -213.7903

siesta: Atomic forces (eV/Ang):
----------------------------------------
   Tot    0.000021    0.000021    0.000021
----------------------------------------
   Max    0.004355
   Res    0.004345    sqrt( Sum f_i^2 / 3N )
----------------------------------------
   Max    0.004355    constrained

Stress tensor Voigt[x,y,z,yz,xz,xy] (kbar):       34.22       34.22       34.22       -0.12       -0.12       -0.12
(Free)E + p*V (eV/cell)     -214.7241
Target enthalpy (eV/cell)     -213.7903

siesta: Stress tensor (static) (eV/Ang**3):
         0.021357   -0.000075   -0.000075
        -0.000075    0.021357   -0.000075
        -0.000075   -0.000075    0.021357

siesta: Pressure (static):        -34.21837925  kBar

siesta: Stress tensor (total) (eV/Ang**3):
         0.021357   -0.000075   -0.000075
        -0.000075    0.021357   -0.000075
        -0.000075   -0.000075    0.021357

siesta: Pressure (total):        -34.21837925  kBar

                     ====================================
                        Begin CG opt. move =     11
                     ====================================
k-point displ. along   1 input, could be:     0.00    0.50
k-point displ. along   2 input, could be:     0.00    0.50
k-point displ. along   3 input, could be:     0.00    0.50
 Kpoints in:          144 . Kpoints trimmed:          132

siesta: k-grid: Number of k-points = 132
siesta: k-points from Monkhorst-Pack grid
siesta: k-cutoff (effective) =    11.548 Ang
siesta: k-point supercell and displacements
siesta: k-grid:     6     0     0      0.000
siesta: k-grid:     0     6     0      0.000
siesta: k-grid:     0     0     6      0.000

superc: Internal auxiliary supercell:     5 x     5 x     5  =     125
superc: Number of atoms, orbitals, and projectors:    250   3250   1000

outcell: Unit cell vectors (Ang):
       -0.000144    2.721956    2.721956
        2.721956   -0.000144    2.721956
        2.721956    2.721956   -0.000144

outcell: Cell vector modules (Ang)   :    3.849427    3.849427    3.849427
outcell: Cell angles (23,13,12) (deg):     60.0035     60.0035     60.0035
outcell: Cell volume (Ang**3)        :     40.3374
<dSpData1D:S at geom step 11
  <sparsity:sparsity for geom step 11
    nrows_g=26 nrows=14 sparsity=16.8580 nnzs=11396, refcount: 7>
  <dData1D:(new from dSpData1D) n=11396, refcount: 1>
refcount: 1>
new_DM -- step:    12
Re-using DM from previous geometries...
Number of DMs in history: 1
 DM extrapolation coefficients: 
1   1.00000
New DM after history re-use:
<dSpData2D:SpM extrapolated using coords
  <sparsity:sparsity for geom step 11
    nrows_g=26 nrows=14 sparsity=16.8580 nnzs=11396, refcount: 9>
  <dData2D:(temp array for extrapolation) n=11396 m=1, refcount: 1>
refcount: 1>
Note: For starting DM, Qtot, Tr[D*S] =          8.00000000          8.16706399
No. of atoms with KB's overlaping orbs in proc 0. Max # of overlaps:      17     161

InitMesh: MESH = 24 x 24 x 24 = 13824
InitMesh: Mesh cutoff (required, used) =   150.000   161.133 Ry
New grid distribution [1]: sub = 2
New grid distribution [2]: sub = 2
New grid distribution [3]: sub = 2
Setting up quadratic distribution...

        iscf     Eharris(eV)        E_KS(eV)     FreeEng(eV)     dDmax    Ef(eV) dHmax(eV)
   scf:    1     -213.325580     -213.794494     -213.794494  0.081389 -4.060878  0.059722
   scf:    2     -213.794795     -213.794668     -213.794668  0.008502 -4.019324  0.011407
   scf:    3     -213.794683     -213.794676     -213.794676  0.001322 -4.025642  0.000332
   scf:    4     -213.794676     -213.794676     -213.794676  0.000014 -4.025582  0.000253

SCF Convergence by DM+H criterion
max |DM_out - DM_in|         :     0.0000138857
max |H_out - H_in|      (eV) :     0.0002530188
SCF cycle converged after 4 iterations

Using DM_out to compute the final energy and forces
No. of atoms with KB's overlaping orbs in proc 0. Max # of overlaps:      17     161

siesta: E_KS(eV) =             -213.7947

siesta: Atomic forces (eV/Ang):
----------------------------------------
   Tot    0.000038    0.000038    0.000038
----------------------------------------
   Max    0.005640
   Res    0.005621    sqrt( Sum f_i^2 / 3N )
----------------------------------------
   Max    0.005640    constrained

Stress tensor Voigt[x,y,z,yz,xz,xy] (kbar):      -35.19      -35.19      -35.19       -0.20       -0.20       -0.20
(Free)E + p*V (eV/cell)     -212.9087
Target enthalpy (eV/cell)     -213.7947

siesta: Stress tensor (static) (eV/Ang**3):
        -0.021964   -0.000124   -0.000124
        -0.000124   -0.021964   -0.000124
        -0.000124   -0.000124   -0.021964

siesta: Pressure (static):         35.18967010  kBar

siesta: Stress tensor (total) (eV/Ang**3):
        -0.021964   -0.000124   -0.000124
        -0.000124   -0.021964   -0.000124
        -0.000124   -0.000124   -0.021964

siesta: Pressure (total):         35.18967010  kBar

                     ====================================
                        Begin CG opt. move =     12
                     ====================================
k-point displ. along   1 input, could be:     0.00    0.50
k-point displ. along   2 input, could be:     0.00    0.50
k-point displ. along   3 input, could be:     0.00    0.50
 Kpoints in:          144 . Kpoints trimmed:          132

siesta: k-grid: Number of k-points = 132
siesta: k-points from Monkhorst-Pack grid
siesta: k-cutoff (effective) =    11.701 Ang
siesta: k-point supercell and displacements
siesta: k-grid:     6     0     0      0.000
siesta: k-grid:     0     6     0      0.000
siesta: k-grid:     0     0     6      0.000

superc: Internal auxiliary supercell:     5 x     5 x     5  =     125
superc: Number of atoms, orbitals, and projectors:    250   3250   1000

outcell: Unit cell vectors (Ang):
       -0.000137    2.758028    2.758028
        2.758028   -0.000137    2.758028
        2.758028    2.758028   -0.000137

outcell: Cell vector modules (Ang)   :    3.900441    3.900441    3.900441
outcell: Cell angles (23,13,12) (deg):     60.0033     60.0033     60.0033
outcell: Cell volume (Ang**3)        :     41.9622
<dSpData1D:S at geom step 12
  <sparsity:sparsity for geom step 12
    nrows_g=26 nrows=14 sparsity=16.7781 nnzs=11342, refcount: 7>
  <dData1D:(new from dSpData1D) n=11342, refcount: 1>
refcount: 1>
new_DM -- step:    13
Re-using DM from previous geometries...
Number of DMs in history: 1
 DM extrapolation coefficients: 
1   1.00000
New DM after history re-use:
<dSpData2D:SpM extrapolated using coords
  <sparsity:sparsity for geom step 12
    nrows_g=26 nrows=14 sparsity=16.7781 nnzs=11342, refcount: 9>
  <dData2D:(temp array for extrapolation) n=11342 m=1, refcount: 1>
refcount: 1>
Note: For starting DM, Qtot, Tr[D*S] =          8.00000000          7.91697162
No. of atoms with KB's overlaping orbs in proc 0. Max # of overlaps:      17     161

InitMesh: MESH = 24 x 24 x 24 = 13824
InitMesh: Mesh cutoff (required, used) =   150.000   156.947 Ry
New grid distribution [1]: sub = 2
New grid distribution [2]: sub = 2
New grid distribution [3]: sub = 2
Setting up quadratic distribution...

        iscf     Eharris(eV)        E_KS(eV)     FreeEng(eV)     dDmax    Ef(eV) dHmax(eV)
   scf:    1     -214.058515     -213.810907     -213.810907  0.038749 -3.975214  0.029248
   scf:    2     -213.810974     -213.810946     -213.810946  0.003869 -3.995725  0.005424
   scf:    3     -213.810949     -213.810948     -213.810948  0.000580 -3.992759  0.000175
   scf:    4     -213.810948     -213.810948     -213.810948  0.000007 -3.992790  0.000133

SCF Convergence by DM+H criterion
max |DM_out - DM_in|         :     0.0000068868
max |H_out - H_in|      (eV) :     0.0001332016
SCF cycle converged after 4 iterations

Using DM_out to compute the final energy and forces
No. of atoms with KB's overlaping orbs in proc 0. Max # of overlaps:      17     161

siesta: E_KS(eV) =             -213.8109

siesta: Atomic forces (eV/Ang):
----------------------------------------
   Tot    0.000044    0.000044    0.000044
----------------------------------------
   Max    0.005004
   Res    0.004982    sqrt( Sum f_i^2 / 3N )
----------------------------------------
   Max    0.005004    constrained

Stress tensor Voigt[x,y,z,yz,xz,xy] (kbar):        2.08        2.08        2.08       -0.16       -0.16       -0.16
(Free)E + p*V (eV/cell)     -213.8654
Target enthalpy (eV/cell)     -213.8109

siesta: Stress tensor (static) (eV/Ang**3):
         0.001298   -0.000098   -0.000098
        -0.000098    0.001298   -0.000098
        -0.000098   -0.000098    0.001298

siesta: Pressure (static):         -2.08018076  kBar

siesta: Stress tensor (total) (eV/Ang**3):
         0.001298   -0.000098   -0.000098
        -0.000098    0.001298   -0.000098
        -0.000098   -0.000098    0.001298

siesta: Pressure (total):         -2.08018076  kBar

cgvc: Finished line minimization    1.  Mean atomic displacement =    0.3469

                     ====================================
                        Begin CG opt. move =     13
                     ====================================
k-point displ. along   1 input, could be:     0.00    0.50
k-point displ. along   2 input, could be:     0.00    0.50
k-point displ. along   3 input, could be:     0.00    0.50
 Kpoints in:          144 . Kpoints trimmed:          132

siesta: k-grid: Number of k-points = 132
siesta: k-points from Monkhorst-Pack grid
siesta: k-cutoff (effective) =    11.647 Ang
siesta: k-point supercell and displacements
siesta: k-grid:     6     0     0      0.000
siesta: k-grid:     0     6     0      0.000
siesta: k-grid:     0     0     6      0.000

superc: Internal auxiliary supercell:     5 x     5 x     5  =     125
superc: Number of atoms, orbitals, and projectors:    250   3250   1000

outcell: Unit cell vectors (Ang):
        0.021722    2.766997    2.766997
        2.766997    0.021722    2.766997
        2.766997    2.766997    0.021722

outcell: Cell vector modules (Ang)   :    3.913185    3.913185    3.913185
outcell: Cell angles (23,13,12) (deg):     59.4803     59.4803     59.4803
outcell: Cell volume (Ang**3)        :     41.8709
<dSpData1D:S at geom step 13
  <sparsity:sparsity for geom step 13
    nrows_g=26 nrows=14 sparsity=16.8314 nnzs=11378, refcount: 7>
  <dData1D:(new from dSpData1D) n=11378, refcount: 1>
refcount: 1>
new_DM -- step:    14
Re-using DM from previous geometries...
Number of DMs in history: 1
 DM extrapolation coefficients: 
1   1.00000
New DM after history re-use:
<dSpData2D:SpM extrapolated using coords
  <sparsity:sparsity for geom step 13
    nrows_g=26 nrows=14 sparsity=16.8314 nnzs=11378, refcount: 9>
  <dData2D:(temp array for extrapolation) n=11378 m=1, refcount: 1>
refcount: 1>
Note: For starting DM, Qtot, Tr[D*S] =          8.00000000          7.83995550
No. of atoms with KB's overlaping orbs in proc 0. Max # of overlaps:      20     185

InitMesh: MESH = 24 x 24 x 24 = 13824
InitMesh: Mesh cutoff (required, used) =   150.000   154.727 Ry
New grid distribution [1]: sub = 2
New grid distribution [2]: sub = 2
New grid distribution [3]: sub = 2
Setting up quadratic distribution...

        iscf     Eharris(eV)        E_KS(eV)     FreeEng(eV)     dDmax    Ef(eV) dHmax(eV)
   scf:    1     -212.870659     -213.129192     -213.132177  0.041774 -3.731905  0.132826
   scf:    2     -213.131547     -213.133992     -213.135981  0.016410 -3.787105  0.053959
   scf:    3     -213.137039     -213.135919     -213.138682  0.004631 -3.769138  0.024797
   scf:    4     -213.135910     -213.135921     -213.138763  0.000606 -3.772844  0.018154
   scf:    5     -213.135793     -213.135866     -213.138790  0.001126 -3.779336  0.006266
   scf:    6     -213.135882     -213.135874     -213.138792  0.000306 -3.780860  0.003293
   scf:    7     -213.135908     -213.135891     -213.138794  0.000381 -3.782720  0.000577
   scf:    8     -213.135901     -213.135896     -213.138794  0.000013 -3.782739  0.000313

SCF Convergence by DM+H criterion
max |DM_out - DM_in|         :     0.0000126990
max |H_out - H_in|      (eV) :     0.0003133640
SCF cycle converged after 8 iterations

Using DM_out to compute the final energy and forces
No. of atoms with KB's overlaping orbs in proc 0. Max # of overlaps:      20     185

siesta: E_KS(eV) =             -213.1359

siesta: Atomic forces (eV/Ang):
----------------------------------------
   Tot   -0.000221   -0.000221   -0.000221
----------------------------------------
   Max    1.190749
   Res    1.190639    sqrt( Sum f_i^2 / 3N )
----------------------------------------
   Max    1.190749    constrained

Stress tensor Voigt[x,y,z,yz,xz,xy] (kbar):      -30.97      -30.97      -30.97       58.10       58.10       58.10
(Free)E + p*V (eV/cell)     -212.3295
Target enthalpy (eV/cell)     -213.1388

siesta: Stress tensor (static) (eV/Ang**3):
        -0.019328    0.036261    0.036261
         0.036261   -0.019328    0.036261
         0.036261    0.036261   -0.019328

siesta: Pressure (static):         30.96626585  kBar

siesta: Stress tensor (total) (eV/Ang**3):
        -0.019328    0.036261    0.036261
         0.036261   -0.019328    0.036261
         0.036261    0.036261   -0.019328

siesta: Pressure (total):         30.96626585  kBar

                     ====================================
                        Begin CG opt. move =     14
                     ====================================
k-point displ. along   1 input, could be:     0.00    0.50
k-point displ. along   2 input, could be:     0.00    0.50
k-point displ. along   3 input, could be:     0.00    0.50
 Kpoints in:          144 . Kpoints trimmed:          132

siesta: k-grid: Number of k-points = 132
siesta: k-points from Monkhorst-Pack grid
siesta: k-cutoff (effective) =    11.701 Ang
siesta: k-point supercell and displacements
siesta: k-grid:     6     0     0      0.000
siesta: k-grid:     0     6     0      0.000
siesta: k-grid:     0     0     6      0.000

superc: Internal auxiliary supercell:     5 x     5 x     5  =     125
superc: Number of atoms, orbitals, and projectors:    250   3250   1000

outcell: Unit cell vectors (Ang):
       -0.000045    2.758066    2.758066
        2.758066   -0.000045    2.758066
        2.758066    2.758066   -0.000045

outcell: Cell vector modules (Ang)   :    3.900495    3.900495    3.900495
outcell: Cell angles (23,13,12) (deg):     60.0011     60.0011     60.0011
outcell: Cell volume (Ang**3)        :     41.9619
<dSpData1D:S at geom step 14
  <sparsity:sparsity for geom step 14
    nrows_g=26 nrows=14 sparsity=16.7781 nnzs=11342, refcount: 7>
  <dData1D:(new from dSpData1D) n=11342, refcount: 1>
refcount: 1>
new_DM -- step:    15
Re-using DM from previous geometries...
Number of DMs in history: 1
 DM extrapolation coefficients: 
1   1.00000
New DM after history re-use:
<dSpData2D:SpM extrapolated using coords
  <sparsity:sparsity for geom step 14
    nrows_g=26 nrows=14 sparsity=16.7781 nnzs=11342, refcount: 9>
  <dData2D:(temp array for extrapolation) n=11342 m=1, refcount: 1>
refcount: 1>
Note: For starting DM, Qtot, Tr[D*S] =          8.00000000          7.92197060
No. of atoms with KB's overlaping orbs in proc 0. Max # of overlaps:      17     161

InitMesh: MESH = 24 x 24 x 24 = 13824
InitMesh: Mesh cutoff (required, used) =   150.000   156.951 Ry
New grid distribution [1]: sub = 2
New grid distribution [2]: sub = 2
New grid distribution [3]: sub = 2
Setting up quadratic distribution...

        iscf     Eharris(eV)        E_KS(eV)     FreeEng(eV)     dDmax    Ef(eV) dHmax(eV)
   scf:    1     -214.252349     -213.809549     -213.809549  0.041618 -4.049081  0.115747
   scf:    2     -213.811304     -213.810754     -213.810754  0.014996 -3.979961  0.023495
   scf:    3     -213.811073     -213.810934     -213.810934  0.003135 -3.995987  0.005603
   scf:    4     -213.810945     -213.810940     -213.810940  0.000173 -3.995131  0.004180
   scf:    5     -213.810946     -213.810944     -213.810944  0.000365 -3.993339  0.001199
   scf:    6     -213.810944     -213.810944     -213.810944  0.000054 -3.993082  0.000770

SCF Convergence by DM+H criterion
max |DM_out - DM_in|         :     0.0000539637
max |H_out - H_in|      (eV) :     0.0007700502
SCF cycle converged after 6 iterations

Using DM_out to compute the final energy and forces
No. of atoms with KB's overlaping orbs in proc 0. Max # of overlaps:      17     161

siesta: E_KS(eV) =             -213.8109

siesta: Atomic forces (eV/Ang):
----------------------------------------
   Tot    0.000045    0.000045    0.000045
----------------------------------------
   Max    0.008368
   Res    0.008346    sqrt( Sum f_i^2 / 3N )
----------------------------------------
   Max    0.008368    constrained

Stress tensor Voigt[x,y,z,yz,xz,xy] (kbar):        2.03        2.03        2.03        0.22        0.22        0.22
(Free)E + p*V (eV/cell)     -213.8641
Target enthalpy (eV/cell)     -213.8109

siesta: Stress tensor (static) (eV/Ang**3):
         0.001267    0.000136    0.000136
         0.000136    0.001267    0.000136
         0.000136    0.000136    0.001267

siesta: Pressure (static):         -2.02935133  kBar

siesta: Stress tensor (total) (eV/Ang**3):
         0.001267    0.000136    0.000136
         0.000136    0.001267    0.000136
         0.000136    0.000136    0.001267

siesta: Pressure (total):         -2.02935133  kBar

cgvc: Finished line minimization    2.  Mean atomic displacement =    0.0015

                     ====================================
                        Begin CG opt. move =     15
                     ====================================
k-point displ. along   1 input, could be:     0.00    0.50
k-point displ. along   2 input, could be:     0.00    0.50
k-point displ. along   3 input, could be:     0.00    0.50
 Kpoints in:          144 . Kpoints trimmed:          132

siesta: k-grid: Number of k-points = 132
siesta: k-points from Monkhorst-Pack grid
siesta: k-cutoff (effective) =    11.700 Ang
siesta: k-point supercell and displacements
siesta: k-grid:     6     0     0      0.000
siesta: k-grid:     0     6     0      0.000
siesta: k-grid:     0     0     6      0.000

superc: Internal auxiliary supercell:     5 x     5 x     5  =     125
superc: Number of atoms, orbitals, and projectors:    250   3250   1000

outcell: Unit cell vectors (Ang):
       -0.000036    2.757632    2.757632
        2.757632   -0.000036    2.757632
        2.757632    2.757632   -0.000036

outcell: Cell vector modules (Ang)   :    3.899880    3.899880    3.899880
outcell: Cell angles (23,13,12) (deg):     60.0009     60.0009     60.0009
outcell: Cell volume (Ang**3)        :     41.9418
<dSpData1D:S at geom step 15
  <sparsity:sparsity for geom step 15
    nrows_g=26 nrows=14 sparsity=16.7781 nnzs=11342, refcount: 7>
  <dData1D:(new from dSpData1D) n=11342, refcount: 1>
refcount: 1>
new_DM -- step:    16
Re-using DM from previous geometries...
Number of DMs in history: 1
 DM extrapolation coefficients: 
1   1.00000
New DM after history re-use:
<dSpData2D:SpM extrapolated using coords
  <sparsity:sparsity for geom step 15
    nrows_g=26 nrows=14 sparsity=16.7781 nnzs=11342, refcount: 9>
  <dData2D:(temp array for extrapolation) n=11342 m=1, refcount: 1>
refcount: 1>
No. of atoms with KB's overlaping orbs in proc 0. Max # of overlaps:      17     161

InitMesh: MESH = 24 x 24 x 24 = 13824
InitMesh: Mesh cutoff (required, used) =   150.000   157.002 Ry
New grid distribution [1]: sub = 2
New grid distribution [2]: sub = 2
New grid distribution [3]: sub = 2
Setting up quadratic distribution...

        iscf     Eharris(eV)        E_KS(eV)     FreeEng(eV)     dDmax    Ef(eV) dHmax(eV)
   scf:    1     -213.808120     -213.810969     -213.810969  0.000370 -3.993500  0.000234
   scf:    2     -213.810969     -213.810969     -213.810969  0.000033 -3.993302  0.000038

SCF Convergence by DM+H criterion
max |DM_out - DM_in|         :     0.0000330455
max |H_out - H_in|      (eV) :     0.0000376113
SCF cycle converged after 2 iterations

Using DM_out to compute the final energy and forces
No. of atoms with KB's overlaping orbs in proc 0. Max # of overlaps:      17     161

siesta: E_KS(eV) =             -213.8110

siesta: Atomic forces (eV/Ang):
----------------------------------------
   Tot    0.000050    0.000050    0.000050
----------------------------------------
   Max    0.006871
   Res    0.006846    sqrt( Sum f_i^2 / 3N )
----------------------------------------
   Max    0.006871    constrained

Stress tensor Voigt[x,y,z,yz,xz,xy] (kbar):        1.65        1.65        1.65        0.18        0.18        0.18
(Free)E + p*V (eV/cell)     -213.8542
Target enthalpy (eV/cell)     -213.8110

siesta: Stress tensor (static) (eV/Ang**3):
         0.001030    0.000113    0.000113
         0.000113    0.001030    0.000113
         0.000113    0.000113    0.001030

siesta: Pressure (static):         -1.64968174  kBar

siesta: Stress tensor (total) (eV/Ang**3):
         0.001030    0.000113    0.000113
         0.000113    0.001030    0.000113
         0.000113    0.000113    0.001030

siesta: Pressure (total):         -1.64968174  kBar

                     ====================================
                        Begin CG opt. move =     16
                     ====================================
k-point displ. along   1 input, could be:     0.00    0.50
k-point displ. along   2 input, could be:     0.00    0.50
k-point displ. along   3 input, could be:     0.00    0.50
 Kpoints in:          144 . Kpoints trimmed:          132

siesta: k-grid: Number of k-points = 132
siesta: k-points from Monkhorst-Pack grid
siesta: k-cutoff (effective) =    11.697 Ang
siesta: k-point supercell and displacements
siesta: k-grid:     6     0     0      0.000
siesta: k-grid:     0     6     0      0.000
siesta: k-grid:     0     0     6      0.000

superc: Internal auxiliary supercell:     5 x     5 x     5  =     125
superc: Number of atoms, orbitals, and projectors:    250   3250   1000

outcell: Unit cell vectors (Ang):
       -0.000021    2.756936    2.756936
        2.756936   -0.000021    2.756936
        2.756936    2.756936   -0.000021

outcell: Cell vector modules (Ang)   :    3.898896    3.898896    3.898896
[...]

        iscf     Eharris(eV)        E_KS(eV)     FreeEng(eV)     dDmax    Ef(eV) dHmax(eV)
   scf:    1     -213.806433     -213.810999     -213.810999  0.000778 -3.994322  0.000579
   scf:    2     -213.810999     -213.810999     -213.810999  0.000077 -3.993837  0.000108

SCF Convergence by DM+H criterion
max |DM_out - DM_in|         :     0.0000766748
max |H_out - H_in|      (eV) :     0.0001081383
SCF cycle converged after 2 iterations

Using DM_out to compute the final energy and forces
No. of atoms with KB's overlaping orbs in proc 0. Max # of overlaps:      17     161

siesta: E_KS(eV) =             -213.8110

siesta: Atomic forces (eV/Ang):
----------------------------------------
   Tot    0.000054    0.000054    0.000054
----------------------------------------
   Max    0.004553
   Res    0.004526    sqrt( Sum f_i^2 / 3N )
----------------------------------------
   Max    0.004553    constrained

Stress tensor Voigt[x,y,z,yz,xz,xy] (kbar):        1.00        1.00        1.00        0.14        0.14        0.14
(Free)E + p*V (eV/cell)     -213.8371
Target enthalpy (eV/cell)     -213.8110

siesta: Stress tensor (static) (eV/Ang**3):
         0.000623    0.000085    0.000085
         0.000085    0.000623    0.000085
         0.000085    0.000085    0.000623

siesta: Pressure (static):         -0.99883503  kBar

siesta: Stress tensor (total) (eV/Ang**3):
         0.000623    0.000085    0.000085
         0.000085    0.000623    0.000085
         0.000085    0.000085    0.000623

siesta: Pressure (total):         -0.99883503  kBar

                     ====================================
                        Begin CG opt. move =     17
                     ====================================
k-point displ. along   1 input, could be:     0.00    0.50
k-point displ. along   2 input, could be:     0.00    0.50
k-point displ. along   3 input, could be:     0.00    0.50
 Kpoints in:          144 . Kpoints trimmed:          132

siesta: k-grid: Number of k-points = 132
siesta: k-points from Monkhorst-Pack grid
siesta: k-cutoff (effective) =    11.692 Ang
siesta: k-point supercell and displacements
siesta: k-grid:     6     0     0      0.000
siesta: k-grid:     0     6     0      0.000
siesta: k-grid:     0     0     6      0.000

superc: Internal auxiliary supercell:     5 x     5 x     5  =     125
superc: Number of atoms, orbitals, and projectors:    250   3250   1000

outcell: Unit cell vectors (Ang):
        0.000002    2.755823    2.755823
        2.755823    0.000002    2.755823
        2.755823    2.755823    0.000002

outcell: Cell vector modules (Ang)   :    3.897323    3.897323    3.897323
outcell: Cell angles (23,13,12) (deg):     59.9999     59.9999     59.9999
outcell: Cell volume (Ang**3)        :     41.8585
<dSpData1D:S at geom step 17
  <sparsity:sparsity for geom step 17
    nrows_g=26 nrows=14 sparsity=16.7781 nnzs=11342, refcount: 7>
  <dData1D:(new from dSpData1D) n=11342, refcount: 1>
refcount: 1>
new_DM -- step:    18
Re-using DM from previous geometries...
Number of DMs in history: 1
 DM extrapolation coefficients: 
1   1.00000
New DM after history re-use:
<dSpData2D:SpM extrapolated using coords
  <sparsity:sparsity for geom step 17
    nrows_g=26 nrows=14 sparsity=16.7781 nnzs=11342, refcount: 9>
  <dData2D:(temp array for extrapolation) n=11342 m=1, refcount: 1>
refcount: 1>
No. of atoms with KB's overlaping orbs in proc 0. Max # of overlaps:      17     161

InitMesh: MESH = 24 x 24 x 24 = 13824
InitMesh: Mesh cutoff (required, used) =   150.000   157.211 Ry
New grid distribution [1]: sub = 2
New grid distribution [2]: sub = 2
New grid distribution [3]: sub = 2
Setting up quadratic distribution...

        iscf     Eharris(eV)        E_KS(eV)     FreeEng(eV)     dDmax    Ef(eV) dHmax(eV)
   scf:    1     -213.803695     -213.811016     -213.811016  0.001245 -3.995223  0.000936
   scf:    2     -213.811016     -213.811016     -213.811016  0.000124 -3.994807  0.000175
   scf:    3     -213.811016     -213.811016     -213.811016  0.000023 -3.994953  0.000034

SCF Convergence by DM+H criterion
max |DM_out - DM_in|         :     0.0000229984
max |H_out - H_in|      (eV) :     0.0000337442
SCF cycle converged after 3 iterations

Using DM_out to compute the final energy and forces
No. of atoms with KB's overlaping orbs in proc 0. Max # of overlaps:      17     161

siesta: E_KS(eV) =             -213.8110

siesta: Atomic forces (eV/Ang):
----------------------------------------
   Tot    0.000038    0.000038    0.000038
----------------------------------------
   Max    0.001078
   Res    0.001059    sqrt( Sum f_i^2 / 3N )
----------------------------------------
   Max    0.001078    constrained

Stress tensor Voigt[x,y,z,yz,xz,xy] (kbar):       -0.06       -0.06       -0.06        0.04        0.04        0.04
(Free)E + p*V (eV/cell)     -213.8094
Target enthalpy (eV/cell)     -213.8110

siesta: Stress tensor (static) (eV/Ang**3):
        -0.000039    0.000025    0.000025
         0.000025   -0.000039    0.000025
         0.000025    0.000025   -0.000039

siesta: Pressure (static):          0.06183574  kBar

siesta: Stress tensor (total) (eV/Ang**3):
        -0.000039    0.000025    0.000025
         0.000025   -0.000039    0.000025
         0.000025    0.000025   -0.000039

siesta: Pressure (total):          0.06183574  kBar

                     ====================================
                        Begin CG opt. move =     18
                     ====================================
k-point displ. along   1 input, could be:     0.00    0.50
k-point displ. along   2 input, could be:     0.00    0.50
k-point displ. along   3 input, could be:     0.00    0.50
 Kpoints in:          144 . Kpoints trimmed:          132

siesta: k-grid: Number of k-points = 132
siesta: k-points from Monkhorst-Pack grid
siesta: k-cutoff (effective) =    11.692 Ang
siesta: k-point supercell and displacements
siesta: k-grid:     6     0     0      0.000
siesta: k-grid:     0     6     0      0.000
siesta: k-grid:     0     0     6      0.000

superc: Internal auxiliary supercell:     5 x     5 x     5  =     125
superc: Number of atoms, orbitals, and projectors:    250   3250   1000

outcell: Unit cell vectors (Ang):
        0.000002    2.755849    2.755849
        2.755849    0.000002    2.755849
        2.755849    2.755849    0.000002

outcell: Cell vector modules (Ang)   :    3.897359    3.897359    3.897359
outcell: Cell angles (23,13,12) (deg):     60.0000     60.0000     60.0000
outcell: Cell volume (Ang**3)        :     41.8597
<dSpData1D:S at geom step 18
  <sparsity:sparsity for geom step 18
    nrows_g=26 nrows=14 sparsity=16.7781 nnzs=11342, refcount: 7>
  <dData1D:(new from dSpData1D) n=11342, refcount: 1>
refcount: 1>
new_DM -- step:    19
Re-using DM from previous geometries...
Number of DMs in history: 1
 DM extrapolation coefficients: 
1   1.00000
New DM after history re-use:
<dSpData2D:SpM extrapolated using coords
  <sparsity:sparsity for geom step 18
    nrows_g=26 nrows=14 sparsity=16.7781 nnzs=11342, refcount: 9>
  <dData2D:(temp array for extrapolation) n=11342 m=1, refcount: 1>
refcount: 1>
No. of atoms with KB's overlaping orbs in proc 0. Max # of overlaps:      17     161

InitMesh: MESH = 24 x 24 x 24 = 13824
InitMesh: Mesh cutoff (required, used) =   150.000   157.208 Ry
New grid distribution [1]: sub = 2
New grid distribution [2]: sub = 2
New grid distribution [3]: sub = 2
Setting up quadratic distribution...

        iscf     Eharris(eV)        E_KS(eV)     FreeEng(eV)     dDmax    Ef(eV) dHmax(eV)
   scf:    1     -213.811185     -213.811016     -213.811016  0.000034 -3.995138  0.000024

SCF Convergence by DM+H criterion
max |DM_out - DM_in|         :     0.0000338182
max |H_out - H_in|      (eV) :     0.0000242848
SCF cycle converged after 1 iterations

Using DM_out to compute the final energy and forces
No. of atoms with KB's overlaping orbs in proc 0. Max # of overlaps:      17     161

siesta: E_KS(eV) =             -213.8110

siesta: Atomic forces (eV/Ang):
----------------------------------------
   Tot    0.000038    0.000038    0.000038
----------------------------------------
   Max    0.001181
   Res    0.001162    sqrt( Sum f_i^2 / 3N )
----------------------------------------
   Max    0.001181    constrained

Stress tensor Voigt[x,y,z,yz,xz,xy] (kbar):       -0.03       -0.03       -0.03        0.04        0.04        0.04
(Free)E + p*V (eV/cell)     -213.8101
Target enthalpy (eV/cell)     -213.8110

siesta: Stress tensor (static) (eV/Ang**3):
        -0.000021    0.000027    0.000027
         0.000027   -0.000021    0.000027
         0.000027    0.000027   -0.000021

siesta: Pressure (static):          0.03372771  kBar

siesta: Stress tensor (total) (eV/Ang**3):
        -0.000021    0.000027    0.000027
         0.000027   -0.000021    0.000027
         0.000027    0.000027   -0.000021

siesta: Pressure (total):          0.03372771  kBar

cgvc: Finished line minimization    3.  Mean atomic displacement =    0.0075

                     ====================================
                        Begin CG opt. move =     19
                     ====================================
k-point displ. along   1 input, could be:     0.00    0.50
k-point displ. along   2 input, could be:     0.00    0.50
k-point displ. along   3 input, could be:     0.00    0.50
 Kpoints in:          144 . Kpoints trimmed:          132

siesta: k-grid: Number of k-points = 132
siesta: k-points from Monkhorst-Pack grid
siesta: k-cutoff (effective) =    11.695 Ang
siesta: k-point supercell and displacements
siesta: k-grid:     6     0     0      0.000
siesta: k-grid:     0     6     0      0.000
siesta: k-grid:     0     0     6      0.000

superc: Internal auxiliary supercell:     5 x     5 x     5  =     125
superc: Number of atoms, orbitals, and projectors:    250   3250   1000

outcell: Unit cell vectors (Ang):
       -0.000532    2.756601    2.756601
        2.756601   -0.000532    2.756601
        2.756601    2.756601   -0.000532

outcell: Cell vector modules (Ang)   :    3.898422    3.898422    3.898422
outcell: Cell angles (23,13,12) (deg):     60.0128     60.0128     60.0128
outcell: Cell volume (Ang**3)        :     41.9061
<dSpData1D:S at geom step 19
  <sparsity:sparsity for geom step 19
    nrows_g=26 nrows=14 sparsity=16.7781 nnzs=11342, refcount: 7>
  <dData1D:(new from dSpData1D) n=11342, refcount: 1>
refcount: 1>
new_DM -- step:    20
Re-using DM from previous geometries...
Number of DMs in history: 1
 DM extrapolation coefficients: 
1   1.00000
New DM after history re-use:
<dSpData2D:SpM extrapolated using coords
  <sparsity:sparsity for geom step 19
    nrows_g=26 nrows=14 sparsity=16.7781 nnzs=11342, refcount: 9>
  <dData2D:(temp array for extrapolation) n=11342 m=1, refcount: 1>
refcount: 1>
No. of atoms with KB's overlaping orbs in proc 0. Max # of overlaps:      17     161

InitMesh: MESH = 24 x 24 x 24 = 13824
InitMesh: Mesh cutoff (required, used) =   150.000   157.072 Ry
New grid distribution [1]: sub = 2
New grid distribution [2]: sub = 2
New grid distribution [3]: sub = 2
Setting up quadratic distribution...

        iscf     Eharris(eV)        E_KS(eV)     FreeEng(eV)     dDmax    Ef(eV) dHmax(eV)
   scf:    1     -213.817049     -213.810590     -213.810590  0.001685 -3.988692  0.003333
   scf:    2     -213.810594     -213.810594     -213.810594  0.000380 -3.988350  0.001721
   scf:    3     -213.810597     -213.810596     -213.810596  0.000125 -3.988502  0.000129
   scf:    4     -213.810596     -213.810596     -213.810596  0.000004 -3.988531  0.000091

SCF Convergence by DM+H criterion
max |DM_out - DM_in|         :     0.0000043912
max |H_out - H_in|      (eV) :     0.0000912039
SCF cycle converged after 4 iterations

Using DM_out to compute the final energy and forces
No. of atoms with KB's overlaping orbs in proc 0. Max # of overlaps:      17     161

siesta: E_KS(eV) =             -213.8106

siesta: Atomic forces (eV/Ang):
----------------------------------------
   Tot    0.000074    0.000074    0.000074
----------------------------------------
   Max    0.060166
   Res    0.060129    sqrt( Sum f_i^2 / 3N )
----------------------------------------
   Max    0.060166    constrained

Stress tensor Voigt[x,y,z,yz,xz,xy] (kbar):        0.89        0.89        0.89       -1.75       -1.75       -1.75
(Free)E + p*V (eV/cell)     -213.8338
Target enthalpy (eV/cell)     -213.8106

siesta: Stress tensor (static) (eV/Ang**3):
         0.000555   -0.001089   -0.001089
        -0.001089    0.000555   -0.001089
        -0.001089   -0.001089    0.000555

siesta: Pressure (static):         -0.88880733  kBar

siesta: Stress tensor (total) (eV/Ang**3):
         0.000555   -0.001089   -0.001089
        -0.001089    0.000555   -0.001089
        -0.001089   -0.001089    0.000555

siesta: Pressure (total):         -0.88880733  kBar

                     ====================================
                        Begin CG opt. move =     20
                     ====================================
k-point displ. along   1 input, could be:     0.00    0.50
k-point displ. along   2 input, could be:     0.00    0.50
k-point displ. along   3 input, could be:     0.00    0.50
 Kpoints in:          144 . Kpoints trimmed:          132

siesta: k-grid: Number of k-points = 132
siesta: k-points from Monkhorst-Pack grid
siesta: k-cutoff (effective) =    11.692 Ang
siesta: k-point supercell and displacements
siesta: k-grid:     6     0     0      0.000
siesta: k-grid:     0     6     0      0.000
siesta: k-grid:     0     0     6      0.000

superc: Internal auxiliary supercell:     5 x     5 x     5  =     125
superc: Number of atoms, orbitals, and projectors:    250   3250   1000

outcell: Unit cell vectors (Ang):
       -0.000008    2.755864    2.755864
        2.755864   -0.000008    2.755864
        2.755864    2.755864   -0.000008

outcell: Cell vector modules (Ang)   :    3.897380    3.897380    3.897380
outcell: Cell angles (23,13,12) (deg):     60.0002     60.0002     60.0002
outcell: Cell volume (Ang**3)        :     41.8606
<dSpData1D:S at geom step 20
  <sparsity:sparsity for geom step 20
    nrows_g=26 nrows=14 sparsity=16.7781 nnzs=11342, refcount: 7>
  <dData1D:(new from dSpData1D) n=11342, refcount: 1>
refcount: 1>
new_DM -- step:    21
Re-using DM from previous geometries...
Number of DMs in history: 1
 DM extrapolation coefficients: 
1   1.00000
New DM after history re-use:
<dSpData2D:SpM extrapolated using coords
  <sparsity:sparsity for geom step 20
    nrows_g=26 nrows=14 sparsity=16.7781 nnzs=11342, refcount: 9>
  <dData2D:(temp array for extrapolation) n=11342 m=1, refcount: 1>
refcount: 1>
No. of atoms with KB's overlaping orbs in proc 0. Max # of overlaps:      17     161

InitMesh: MESH = 24 x 24 x 24 = 13824
InitMesh: Mesh cutoff (required, used) =   150.000   157.206 Ry
New grid distribution [1]: sub = 2
New grid distribution [2]: sub = 2
New grid distribution [3]: sub = 2
Setting up quadratic distribution...

        iscf     Eharris(eV)        E_KS(eV)     FreeEng(eV)     dDmax    Ef(eV) dHmax(eV)
   scf:    1     -213.804622     -213.811011     -213.811011  0.001646 -3.995049  0.003255
   scf:    2     -213.811015     -213.811015     -213.811015  0.000372 -3.994730  0.001675
   scf:    3     -213.811018     -213.811017     -213.811017  0.000122 -3.994923  0.000126
   scf:    4     -213.811017     -213.811017     -213.811017  0.000004 -3.994897  0.000089

SCF Convergence by DM+H criterion
max |DM_out - DM_in|         :     0.0000043131
max |H_out - H_in|      (eV) :     0.0000888415
SCF cycle converged after 4 iterations

Using DM_out to compute the final energy and forces
No. of atoms with KB's overlaping orbs in proc 0. Max # of overlaps:      17     161

siesta: E_KS(eV) =             -213.8110

siesta: Atomic forces (eV/Ang):
----------------------------------------
   Tot    0.000020    0.000020    0.000020
----------------------------------------
   Max    0.000042
   Res    0.000034    sqrt( Sum f_i^2 / 3N )
----------------------------------------
   Max    0.000042    constrained

Stress tensor Voigt[x,y,z,yz,xz,xy] (kbar):       -0.02       -0.02       -0.02        0.01        0.01        0.01
(Free)E + p*V (eV/cell)     -213.8106
Target enthalpy (eV/cell)     -213.8110

siesta: Stress tensor (static) (eV/Ang**3):
        -0.000011    0.000006    0.000006
         0.000006   -0.000011    0.000006
         0.000006    0.000006   -0.000011

siesta: Pressure (static):          0.01778330  kBar

siesta: Stress tensor (total) (eV/Ang**3):
        -0.000011    0.000006    0.000006
         0.000006   -0.000011    0.000006
         0.000006    0.000006   -0.000011

siesta: Pressure (total):          0.01778330  kBar

outcoor: Relaxed atomic coordinates (fractional):           
    0.25001684    0.25001684    0.25001684   1       1  Si
    0.00001735    0.00001735    0.00001735   1       2  Si

outcell: Unit cell vectors (Ang):
       -0.000008    2.755864    2.755864
        2.755864   -0.000008    2.755864
        2.755864    2.755864   -0.000008

outcell: Cell vector modules (Ang)   :    3.897380    3.897380    3.897380
outcell: Cell angles (23,13,12) (deg):     60.0002     60.0002     60.0002
outcell: Cell volume (Ang**3)        :     41.8606

siesta: Program's energy decomposition (eV):
siesta: Ebs     =       -75.424491
siesta: Eions   =       444.480597
siesta: Ena     =       174.511567
siesta: Ekin    =        81.025989
siesta: Enl     =        35.378701
siesta: Eso     =         0.000000
siesta: Edftu   =         0.000000
siesta: DEna    =         4.083771
siesta: DUscf   =         0.293923
siesta: DUext   =         0.000000
siesta: Ex      =       -56.417868
siesta: Ec      =        -8.206502
siesta: Exc     =       -64.624370
siesta: EbV     =         0.000000
siesta: eta*DQ  =         0.000000
siesta: Emadel  =         0.000000
siesta: Emeta   =         0.000000
siesta: Emolmec =         0.000000
siesta: Ekinion =         0.000000
siesta: Eharris =      -213.811017
siesta: Etot    =      -213.811017
siesta: FreeEng =      -213.811017

siesta: Final energy (eV):
siesta:  Band Struct. =     -75.424491
siesta:       Kinetic =      81.025989
siesta:       Hartree =      15.198445
siesta:         Edftu =       0.000000
siesta:       Eso     =       0.000000
siesta:    Ext. field =       0.000000
siesta:         Exch. =     -56.417868
siesta:         Corr. =      -8.206502
siesta:     Bulk bias =       0.000000
siesta:   Exch.-corr. =     -64.624370
siesta:  Ion-electron =    -102.765184
siesta:       Ion-ion =    -142.645897
siesta:       Ekinion =       0.000000
siesta: D3 dispersion =       0.000000
siesta:         Total =    -213.811017
siesta:         Fermi =      -3.994897

siesta: Stress tensor (static) (eV/Ang**3):
siesta:    -0.000011    0.000006    0.000006
siesta:     0.000006   -0.000011    0.000006
siesta:     0.000006    0.000006   -0.000011

siesta: Constrained stress tensor (static) (eV/Ang**3):
siesta:    -0.000011    0.000006    0.000006
siesta:     0.000006   -0.000011    0.000006
siesta:     0.000006    0.000006   -0.000011

siesta: Cell volume =         41.860572 Ang**3

siesta: Pressure (static):
siesta:                Solid            Molecule  Units
siesta:           0.00000012          0.00000011  Ry/Bohr**3
siesta:           0.00001110          0.00001003  eV/Ang**3
siesta:           0.01778330          0.01607735  kBar
(Free)E+ p_basis*V_orbitals  =        -212.296061
(Free)Eharris+ p_basis*V_orbitals  =        -212.296061

cite: Please see "Si-diamond.bib" for an exhaustive BiBTeX file.
cite: Please clearly indicate Siesta version in published work: 5.0.1
cite: This calculation has made use of the following articles
cite: which are encouraged to be cited in a published work.
        Primary SIESTA paper
          DOI: www.doi.org/10.1088/0953-8984/14/11/302


>> End of run:   5-DEC-2024  17:12:23
Job completed
