Executable      : siesta
Version         : 5.0.1
Architecture    : x86_64
Compiler version: GNU-12.4.0
Compiler flags  : -march=nocona -mtune=haswell -ftree-vectorize -fPIC -fstack-protector-strong -fno-plt -O2 -ffunction-sections -pipe -isystem <prefix>/include -fdebug-prefix-map=<prefix>/work=/usr/local/src/conda/siesta-5.0.1 -fdebug-prefix-map=<prefix>=/usr/local/src/conda-prefix -I<prefix>/lib -fallow-argument-mismatch -O3
Parallelisations: MPI
NetCDF support
NetCDF-4 support
NetCDF-4 MPI-IO support
Lua support
Native ELPA support
DFT-D3 support

Runtime information:
* Directory : /home/carlos/documents/siesta-hands-on/siesta-complete-guide/Chapter-8/k-points/ec_8
* Running on 2 nodes in parallel.
>> Start of run:   5-DEC-2024  17:24:51

                           *********************** 
                           *  WELCOME TO SIESTA  * 
                           *********************** 

 NOTE: Siesta V5 introduces some new defaults for basis-set generation
 NOTE: which might lead to slightly different numerical results.
 NOTE: Please see the manual for full details and compatibility measures.


reinit: Reading from file calc.fdf

reinit: -----------------------------------------------------------------------
reinit: System Name: Si bulk diamond
reinit: -----------------------------------------------------------------------
reinit: System Label: Si-diamond
reinit: -----------------------------------------------------------------------

initatom: Reading input for the pseudopotentials and atomic orbitals ----------
Species number:   1 Atomic number:   14 Label: Si

Ground state valence configuration (from tables):   3s02  3p02  3d00  4f00

---- Processing specs for species: Si
Reading pseudopotential information in unformatted form from:
  Si.vps

---- Pseudopotential check for Si

Pseudized shells:
3s( 2.00) rc: 1.23
3p( 2.00) rc: 1.43
Valence configuration for ps generation: (assumed as above)
For Si, standard SIESTA heuristics set lmxkb to 3
 (one more than the basis l, including polarization orbitals).
Use PS.lmax or PS.KBprojectors blocks to override.
Si pseudopotential only contains V_ls up to l=1 -- lmxkb reset.

<basis_specs>
===============================================================================
Si                   Z=  14    Mass=  28.090        Charge= 0.17977+309
Lmxo=2 Lmxkb= 1    BasisType=split      Semic=F
L=0  Nsemic=0  Cnfigmx=3
          i=1  nzeta=2  polorb=0  (3s)
            splnorm:   0.15000    
               vcte:    40.000    
               rinn:  -0.90000    
               qcoe:    0.0000    
               qyuk:    0.0000    
               qwid:   0.10000E-01
                rcs:    0.0000      0.0000    
            lambdas:    1.0000      1.0000    
L=1  Nsemic=0  Cnfigmx=3
          i=1  nzeta=2  polorb=1  (3p)  (to be polarized perturbatively)
            splnorm:   0.15000    
               vcte:    40.000    
               rinn:  -0.90000    
               qcoe:    0.0000    
               qyuk:    0.0000    
               qwid:   0.10000E-01
                rcs:    0.0000      0.0000    
            lambdas:    1.0000      1.0000    
L=2  Nsemic=0  Cnfigmx=3
          i=1  nzeta=0  polorb=0  (3d)  (perturbative polarization orbital) (from 3p)
-------------------------------------------------------------------------------
L=0  Nkbl=1  erefs: 0.17977+309
L=1  Nkbl=1  erefs: 0.17977+309
===============================================================================
</basis_specs>

Using PAO.SplitTailNorm
atom: Called for Si                    (Z =  14)
NOTE: Si pseudopotential has channels up to l= 1
NOTE: PAOs with higher l will be generated with V_local
Maximum radius (at nrval) set to   50.00000 8518

read_vps: Pseudopotential generation method:
read_vps: ATM4.2.7  Kerker                                  
Valence charge in pseudo generation:    4.00000

xc_check: Exchange-correlation functional:
xc_check: GGA Perdew, Burke & Ernzerhof 1996
V l=0 = -2*Zval/r beyond r=  2.8074
V l=1 = -2*Zval/r beyond r=  2.8074
All V_l potentials equal beyond r=  1.5163
This should be close to max(r_c) in ps generation
All pots = -2*Zval/r beyond r=  2.8074
Using large-core scheme (fit) for Vlocal

atom: Estimated core radius    2.80744

atom: Including non-local core corrections could be a good idea
Fit of Vlocal with continuous 2nd derivative
Fitting vlocal at       1.5209
Choosing vlocal chloc cutoff:  5726  3.054333
qtot up to nchloc:    3.99984030
atom: Maximum radius for chlocal:    3.05433
atom: Maximum radius for r*vlocal+2*Zval:    3.05433

KBgen: Kleinman-Bylander projectors: 
GHOST: No ghost state for L =  0
   l= 0   rc=  1.511703   el= -0.791527   Ekb=  6.361810   kbcos=  0.278083
GHOST: No ghost state for L =  1
   l= 1   rc=  1.575389   el= -0.300579   Ekb=  2.611741   kbcos=  0.260518

KBgen: Total number of Kleinman-Bylander projectors:   4
atom: -------------------------------------------------------------------------

atom: SANKEY-TYPE ORBITALS:
atom: Selected multiple-zeta basis: split     

SPLIT: Orbitals with angular momentum L= 0

SPLIT: Basis orbitals for state 3s

SPLIT: PAO cut-off radius determined from an
SPLIT: energy shift=  0.010000 Ry
Split based on tail norm

   izeta = 1
                 lambda =    1.000000
                     rc =    5.403143
                 energy =   -0.779945
                kinetic =    0.563858
    potential(screened) =   -1.343803
       potential(ionic) =   -3.794934

   izeta = 2
                 rmatch =    3.854490
              splitnorm =    0.150000
                 energy =   -0.529540
                kinetic =    1.167421
    potential(screened) =   -1.696961
       potential(ionic) =   -4.291182

SPLIT: Orbitals with angular momentum L= 1

SPLIT: Basis orbitals for state 3p

SPLIT: PAO cut-off radius determined from an
SPLIT: energy shift=  0.010000 Ry
Split based on tail norm

   izeta = 1
                 lambda =    1.000000
                     rc =    6.843982
                 energy =   -0.289102
                kinetic =    0.857285
    potential(screened) =   -1.146387
       potential(ionic) =   -3.385088

   izeta = 2
                 rmatch =    4.952104
              splitnorm =    0.150000
                 energy =   -0.182759
                kinetic =    1.296336
    potential(screened) =   -1.479095
       potential(ionic) =   -3.923275
*Note: V_local used for l= 2

** Using vlocal for PAOs with L= 2

POLgen: Perturbative polarization orbital with L=  2

POLgen: Polarization orbital for state 3p
*Note: V_local used for lpol= 2

** Using vlocal for PAOs with L= 2
Split based on tail norm

   izeta = 1
                     rc =    6.843982
                 energy =    0.369369
                kinetic =    1.362956
    potential(screened) =   -0.993588
       potential(ionic) =   -3.078590
atom: Total number of Sankey-type orbitals: 13

atm_pop: Valence configuration (for local Pseudopot. screening):
 3s( 2.00)                                                            
 3p( 2.00)                                                            
 3d( 0.00)                                                            
Vna: chval, zval:    4.00000   4.00000

Vna:  Cut-off radius for the neutral-atom potential:   6.843982

atom: _________________________________________________________________________

prinput: Basis input 

PAO.BasisType split     

%block ChemicalSpeciesLabel
    1   14 Si                      # Species index, atomic number, species label
%endblock ChemicalSpeciesLabel

%block PAO.Basis                 # Define Basis set
# WARNING: This information might be incomplete!
Si                    2                    # Species label, number of l-shells
 n=3   0   2                         # n, l, Nzeta 
   5.403      3.854   
   1.000      1.000   
 n=3   1   2 P   1                   # n, l, Nzeta, Polarization, NzetaPol
   6.844      4.952   
   1.000      1.000   
%endblock PAO.Basis

prinput: ----------------------------------------------------------------------

Dumping basis to NetCDF file Si.ion.nc
coor:   Atomic-coordinates input format  =     Fractional

siesta: Atomic coordinates (Bohr) and species
siesta:      3.30702   3.30702   3.30702  1        1
siesta:      0.00000   0.00000   0.00000  1        2

siesta: System type = bulk      

initatomlists: Number of atoms, orbitals, and projectors:      2    26     8

siesta: ******************** Simulation parameters ****************************
siesta:
siesta: The following are some of the parameters of the simulation.
siesta: A complete list of the parameters used, including default values,
siesta: can be found in file out.fdf
siesta:
redata: Spin configuration                          = none
redata: Number of spin components                   = 1
redata: Time-Reversal Symmetry                      = T
redata: Spin spiral                                 = F
redata: Long output                                 =   F
redata: Number of Atomic Species                    =        1
redata: Charge density info will appear in .RHO file
redata: Write Mulliken Pop.                         = NO
redata: Matel table size (NRTAB)                    =     1024
redata: Mesh Cutoff                                 =   300.0000 Ry
redata: Net charge of the system                    =     0.0000 |e|
redata: Min. number of SCF Iter                     =        0
redata: Max. number of SCF Iter                     =      300
redata: SCF convergence failure will abort job
redata: SCF mix quantity                            = Hamiltonian
redata: Mix DM or H after convergence               =   F
redata: Recompute H after scf cycle                 =   F
redata: Mix DM in first SCF step                    =   T
redata: Write Pulay info on disk                    =   F
redata: New DM Occupancy tolerance                  = 0.000000000001
redata: No kicks to SCF
redata: DM Mixing Weight for Kicks                  =     0.5000
redata: Require Harris convergence for SCF          =   F
redata: Harris energy tolerance for SCF             =     0.000100 eV
redata: Require DM convergence for SCF              =   T
redata: DM tolerance for SCF                        =     0.000100
redata: Require EDM convergence for SCF             =   F
redata: EDM tolerance for SCF                       =     0.001000 eV
redata: Require H convergence for SCF               =   T
redata: Hamiltonian tolerance for SCF               =     0.001000 eV
redata: Require (free) Energy convergence for SCF   =   F
redata: (free) Energy tolerance for SCF             =     0.000100 eV
redata: Using DFT-D3 dispersion                     =   F
redata: Using Saved Data (generic)                  =   F
redata: Use continuation files for DM               =   T
redata: Neglect nonoverlap interactions             =   F
redata: Method of Calculation                       = Diagonalization
redata: Electronic Temperature                      =   299.9863 K
redata: Fix the spin of the system                  =   F
redata: Max. number of TDED Iter                    =        1
redata: Number of TDED substeps                     =        3
redata: Dynamics option                             = CG coord. optimization
redata: Variable cell                               =   T
redata: Use continuation files for CG               =   F
redata: Max atomic displ per move                   =     0.1058 Ang
redata: Maximum number of optimization moves        =       30
redata: Force tolerance                             =     0.0010 eV/Ang
redata: Stress tolerance                            =     1.0000 GPa
mix.SCF: Pulay mixing                            = Pulay
mix.SCF:    Variant                              = stable
mix.SCF:    History steps                        = 2
mix.SCF:    Linear mixing weight                 =     0.250000
mix.SCF:    Mixing weight                        =     0.250000
mix.SCF:    SVD condition                        = 0.1000E-07
redata: Save all siesta data in one NC              =   F
redata: ***********************************************************************

%block SCF.Mixers
  Pulay
%endblock SCF.Mixers

%block SCF.Mixer.Pulay
  # Mixing method
  method pulay
  variant stable

  # Mixing options
  weight 0.2500
  weight.linear 0.2500
  history 2
%endblock SCF.Mixer.Pulay

DM_history_depth set to one: no extrapolation allowed by default for geometry relaxation
Size of DM history Fstack: 1
Total number of electrons:     8.000000
Total ionic charge:     8.000000

* ProcessorY, Blocksize:    2  14


* Orbital distribution balance (max,min):    14    12

k-point displ. along   1 input, could be:     0.00    0.50
k-point displ. along   2 input, could be:     0.00    0.50
k-point displ. along   3 input, could be:     0.00    0.50
 Kpoints in:          320 . Kpoints trimmed:          296

siesta: k-grid: Number of k-points = 296
siesta: k-points from Monkhorst-Pack grid
siesta: k-cutoff (effective) =    19.799 Ang
siesta: k-point supercell and displacements
siesta: k-grid:     8     0     0      0.000
siesta: k-grid:     0     8     0      0.000
siesta: k-grid:     0     0     8      0.000

diag: Algorithm                                     = D&C
diag: Parallel over k                               =   F
diag: Use parallel 2D distribution                  =   F
diag: Parallel block-size                           = 14
diag: Parallel distribution                         =     1 x     2
diag: Used triangular part                          = Lower
diag: Absolute tolerance                            =  0.100E-15
diag: Orthogonalization factor                      =  0.100E-05
diag: Memory factor                                 =  1.0000

superc: Internal auxiliary supercell:     3 x     3 x     3  =      27
superc: Number of atoms, orbitals, and projectors:     54    702    216


ts: **************************************************************
ts: Save H and S matrices                           =    F
ts: Save DM and EDM matrices                        =    F
ts: Only save the overlap matrix S                  =    F
ts: **************************************************************

************************ Begin: TS CHECKS AND WARNINGS ************************
************************ End: TS CHECKS AND WARNINGS **************************


                     ====================================
                        Begin CG opt. move =      0
                     ====================================

superc: Internal auxiliary supercell:     3 x     3 x     3  =      27
superc: Number of atoms, orbitals, and projectors:     54    702    216

outcell: Unit cell vectors (Ang):
        0.000000    3.500000    3.500000
        3.500000    0.000000    3.500000
        3.500000    3.500000    0.000000

outcell: Cell vector modules (Ang)   :    4.949747    4.949747    4.949747
outcell: Cell angles (23,13,12) (deg):     60.0000     60.0000     60.0000
outcell: Cell volume (Ang**3)        :     85.7500
<dSpData1D:S at geom step 0
  <sparsity:sparsity for geom step 0
    nrows_g=26 nrows=14 sparsity=7.3817 nnzs=4990, refcount: 7>
  <dData1D:(new from dSpData1D) n=4990, refcount: 1>
refcount: 1>
new_DM -- step:     1
Initializing Density Matrix...

Attempting to read DM from file... Failed...
DM filled with atomic data:
<dSpData2D:DM initialized from atoms
  <sparsity:sparsity for geom step 0
    nrows_g=26 nrows=14 sparsity=7.3817 nnzs=4990, refcount: 8>
  <dData2D:DM n=4990 m=1, refcount: 1>
refcount: 1>
No. of atoms with KB's overlaping orbs in proc 0. Max # of overlaps:       8      61

InitMesh: MESH = 48 x 48 x 48 = 110592
InitMesh: Mesh cutoff (required, used) =   300.000   389.861 Ry
New grid distribution [1]: sub = 2
New grid distribution [2]: sub = 2
New grid distribution [3]: sub = 2
Setting up quadratic distribution...

stepf: Fermi-Dirac step function

siesta: Program's energy decomposition (eV):
siesta: Ebs     =       -65.010455
siesta: Eions   =       444.480597
siesta: Ena     =       181.138495
siesta: Ekin    =        66.887568
siesta: Enl     =        33.601117
siesta: Eso     =         0.000000
siesta: Edftu   =         0.000000
siesta: DEna    =         8.807164
siesta: DUscf   =         0.291066
siesta: DUext   =         0.000000
siesta: Ex      =       -49.887424
siesta: Ec      =        -6.976487
siesta: Exc     =       -56.863911
siesta: EbV     =         0.000000
siesta: eta*DQ  =         0.000000
siesta: Emadel  =         0.000000
siesta: Emeta   =         0.000000
siesta: Emolmec =         0.000000
siesta: Ekinion =         0.000000
siesta: Eharris =      -215.694928
siesta: Etot    =      -210.619098
siesta: FreeEng =      -210.621046

        iscf     Eharris(eV)        E_KS(eV)     FreeEng(eV)     dDmax    Ef(eV) dHmax(eV)
   scf:    1     -215.694928     -210.619098     -210.621046  0.709868 -4.283943  0.502605
timer: Routine,Calls,Time,% = IterSCF        1       0.711  31.27
   scf:    2     -210.630958     -210.625126     -210.627051  0.009871 -4.367918  0.345836
   scf:    3     -210.635375     -210.630710     -210.632607  0.021097 -4.549805  0.004988
   scf:    4     -210.630718     -210.630714     -210.632611  0.000221 -4.549428  0.003962
   scf:    5     -210.630722     -210.630718     -210.632615  0.000495 -4.548250  0.001627
   scf:    6     -210.630718     -210.630718     -210.632616  0.000057 -4.547812  0.001007
   scf:    7     -210.630718     -210.630718     -210.632615  0.000077 -4.546860  0.000729

SCF Convergence by DM+H criterion
max |DM_out - DM_in|         :     0.0000773343
max |H_out - H_in|      (eV) :     0.0007287027
SCF cycle converged after 7 iterations

Using DM_out to compute the final energy and forces
No. of atoms with KB's overlaping orbs in proc 0. Max # of overlaps:       8      61

siesta: E_KS(eV) =             -210.6307

siesta: E_KS - E_eggbox =      -210.6307

siesta: Atomic forces (eV/Ang):
----------------------------------------
   Tot   -0.000000    0.000000   -0.000000
----------------------------------------
   Max    0.000021
   Res    0.000021    sqrt( Sum f_i^2 / 3N )
----------------------------------------
   Max    0.000021    constrained

Stress tensor Voigt[x,y,z,yz,xz,xy] (kbar):      116.57      116.57      116.57        0.00        0.00        0.00
(Free)E + p*V (eV/cell)     -216.8715
Target enthalpy (eV/cell)     -210.6326

siesta: Stress tensor (static) (eV/Ang**3):
         0.072756    0.000002    0.000002
         0.000002    0.072756    0.000002
         0.000002    0.000002    0.072756

siesta: Pressure (static):       -116.56876005  kBar

siesta: Stress tensor (total) (eV/Ang**3):
         0.072756    0.000002    0.000002
         0.000002    0.072756    0.000002
         0.000002    0.000002    0.072756

siesta: Pressure (total):       -116.56876005  kBar

cgvc: No target stress found, assuming hydrostatic MD.TargetPressure.

cgvc: Target stress (kBar)
cgvc:        -0.000       0.000       0.000
cgvc:         0.000      -0.000       0.000
cgvc:         0.000       0.000      -0.000

                     ====================================
                        Begin CG opt. move =      1
                     ====================================
k-point displ. along   1 input, could be:     0.00    0.50
k-point displ. along   2 input, could be:     0.00    0.50
k-point displ. along   3 input, could be:     0.00    0.50
 Kpoints in:          320 . Kpoints trimmed:          296

siesta: k-grid: Number of k-points = 296
siesta: k-points from Monkhorst-Pack grid
siesta: k-cutoff (effective) =    19.557 Ang
siesta: k-point supercell and displacements
siesta: k-grid:     8     0     0      0.000
siesta: k-grid:     0     8     0      0.000
siesta: k-grid:     0     0     8      0.000

superc: Internal auxiliary supercell:     3 x     3 x     3  =      27
superc: Number of atoms, orbitals, and projectors:     54    702    216

outcell: Unit cell vectors (Ang):
       -0.000002    3.457226    3.457226
        3.457226   -0.000002    3.457226
        3.457226    3.457226   -0.000002

outcell: Cell vector modules (Ang)   :    4.889256    4.889256    4.889256
outcell: Cell angles (23,13,12) (deg):     60.0000     60.0000     60.0000
outcell: Cell volume (Ang**3)        :     82.6445
<dSpData1D:S at geom step 1
  <sparsity:sparsity for geom step 1
    nrows_g=26 nrows=14 sparsity=7.4349 nnzs=5026, refcount: 7>
  <dData1D:(new from dSpData1D) n=5026, refcount: 1>
refcount: 1>
new_DM -- step:     2
Re-using DM from previous geometries...
Number of DMs in history: 1
 DM extrapolation coefficients: 
1   1.00000
New DM after history re-use:
<dSpData2D:SpM extrapolated using coords
  <sparsity:sparsity for geom step 1
    nrows_g=26 nrows=14 sparsity=7.4349 nnzs=5026, refcount: 9>
  <dData2D:(temp array for extrapolation) n=5026 m=1, refcount: 1>
refcount: 1>
Note: For starting DM, Qtot, Tr[D*S] =          8.00000000          8.07849663
No. of atoms with KB's overlaping orbs in proc 0. Max # of overlaps:       8      61

InitMesh: MESH = 48 x 48 x 48 = 110592
InitMesh: Mesh cutoff (required, used) =   300.000   399.567 Ry
New grid distribution [1]: sub = 2
New grid distribution [2]: sub = 2
New grid distribution [3]: sub = 2
Setting up quadratic distribution...

        iscf     Eharris(eV)        E_KS(eV)     FreeEng(eV)     dDmax    Ef(eV) dHmax(eV)
   scf:    1     -210.810393     -210.859999     -210.861915  0.020888 -4.568802  0.023550
   scf:    2     -210.860036     -210.860019     -210.861930  0.001309 -4.550679  0.004389
   scf:    3     -210.860019     -210.860019     -210.861930  0.000211 -4.553438  0.000109
   scf:    4     -210.860019     -210.860019     -210.861930  0.000007 -4.553414  0.000081

SCF Convergence by DM+H criterion
max |DM_out - DM_in|         :     0.0000073779
max |H_out - H_in|      (eV) :     0.0000810634
SCF cycle converged after 4 iterations

Using DM_out to compute the final energy and forces
No. of atoms with KB's overlaping orbs in proc 0. Max # of overlaps:       8      61

siesta: E_KS(eV) =             -210.8600

siesta: Atomic forces (eV/Ang):
----------------------------------------
   Tot    0.000000    0.000000   -0.000000
----------------------------------------
   Max    0.000020
   Res    0.000020    sqrt( Sum f_i^2 / 3N )
----------------------------------------
   Max    0.000020    constrained

Stress tensor Voigt[x,y,z,yz,xz,xy] (kbar):      120.10      120.10      120.10        0.00        0.00        0.00
(Free)E + p*V (eV/cell)     -217.0572
Target enthalpy (eV/cell)     -210.8619

siesta: Stress tensor (static) (eV/Ang**3):
         0.074963    0.000002    0.000002
         0.000002    0.074963    0.000002
         0.000002    0.000002    0.074963

siesta: Pressure (static):       -120.10342992  kBar

siesta: Stress tensor (total) (eV/Ang**3):
         0.074963    0.000002    0.000002
         0.000002    0.074963    0.000002
         0.000002    0.000002    0.074963

siesta: Pressure (total):       -120.10342992  kBar

                     ====================================
                        Begin CG opt. move =      2
                     ====================================
k-point displ. along   1 input, could be:     0.00    0.50
k-point displ. along   2 input, could be:     0.00    0.50
k-point displ. along   3 input, could be:     0.00    0.50
 Kpoints in:          320 . Kpoints trimmed:          296

siesta: k-grid: Number of k-points = 296
siesta: k-points from Monkhorst-Pack grid
siesta: k-cutoff (effective) =    19.170 Ang
siesta: k-point supercell and displacements
siesta: k-grid:     8     0     0      0.000
siesta: k-grid:     0     8     0      0.000
siesta: k-grid:     0     0     8      0.000

superc: Internal auxiliary supercell:     3 x     3 x     3  =      27
superc: Number of atoms, orbitals, and projectors:     54    702    216

outcell: Unit cell vectors (Ang):
       -0.000005    3.388788    3.388788
        3.388788   -0.000005    3.388788
        3.388788    3.388788   -0.000005

outcell: Cell vector modules (Ang)   :    4.792470    4.792470    4.792470
outcell: Cell angles (23,13,12) (deg):     60.0001     60.0001     60.0001
outcell: Cell volume (Ang**3)        :     77.8331
<dSpData1D:S at geom step 2
  <sparsity:sparsity for geom step 2
    nrows_g=26 nrows=14 sparsity=7.7544 nnzs=5242, refcount: 7>
  <dData1D:(new from dSpData1D) n=5242, refcount: 1>
refcount: 1>
new_DM -- step:     3
Re-using DM from previous geometries...
Number of DMs in history: 1
 DM extrapolation coefficients: 
1   1.00000
New DM after history re-use:
<dSpData2D:SpM extrapolated using coords
  <sparsity:sparsity for geom step 2
    nrows_g=26 nrows=14 sparsity=7.7544 nnzs=5242, refcount: 9>
  <dData2D:(temp array for extrapolation) n=5242 m=1, refcount: 1>
refcount: 1>
Note: For starting DM, Qtot, Tr[D*S] =          8.00000000          8.12809898
No. of atoms with KB's overlaping orbs in proc 0. Max # of overlaps:       8      61

InitMesh: MESH = 48 x 48 x 48 = 110592
InitMesh: Mesh cutoff (required, used) =   300.000   415.868 Ry
New grid distribution [1]: sub = 2
New grid distribution [2]: sub = 2
New grid distribution [3]: sub = 2
Setting up quadratic distribution...

        iscf     Eharris(eV)        E_KS(eV)     FreeEng(eV)     dDmax    Ef(eV) dHmax(eV)
   scf:    1     -211.133694     -211.229089     -211.231012  0.038807 -4.574290  0.044502
   scf:    2     -211.229141     -211.229122     -211.231063  0.002335 -4.540394  0.008096
   scf:    3     -211.229132     -211.229127     -211.231065  0.000374 -4.545458  0.000214
   scf:    4     -211.229127     -211.229127     -211.231065  0.000019 -4.545411  0.000159

SCF Convergence by DM+H criterion
max |DM_out - DM_in|         :     0.0000191240
max |H_out - H_in|      (eV) :     0.0001594579
SCF cycle converged after 4 iterations

Using DM_out to compute the final energy and forces
No. of atoms with KB's overlaping orbs in proc 0. Max # of overlaps:       8      61

siesta: E_KS(eV) =             -211.2291

siesta: Atomic forces (eV/Ang):
----------------------------------------
   Tot   -0.000000   -0.000000    0.000000
----------------------------------------
   Max    0.000009
   Res    0.000009    sqrt( Sum f_i^2 / 3N )
----------------------------------------
   Max    0.000009    constrained

Stress tensor Voigt[x,y,z,yz,xz,xy] (kbar):      125.79      125.79      125.79        0.00        0.00        0.00
(Free)E + p*V (eV/cell)     -217.3417
Target enthalpy (eV/cell)     -211.2311

siesta: Stress tensor (static) (eV/Ang**3):
         0.078510    0.000002    0.000002
         0.000002    0.078510    0.000002
         0.000002    0.000002    0.078510

siesta: Pressure (static):       -125.78631031  kBar

siesta: Stress tensor (total) (eV/Ang**3):
         0.078510    0.000002    0.000002
         0.000002    0.078510    0.000002
         0.000002    0.000002    0.078510

siesta: Pressure (total):       -125.78631031  kBar

                     ====================================
                        Begin CG opt. move =      3
                     ====================================
k-point displ. along   1 input, could be:     0.00    0.50
k-point displ. along   2 input, could be:     0.00    0.50
k-point displ. along   3 input, could be:     0.00    0.50
 Kpoints in:          320 . Kpoints trimmed:          296

siesta: k-grid: Number of k-points = 296
siesta: k-points from Monkhorst-Pack grid
siesta: k-cutoff (effective) =    18.751 Ang
siesta: k-point supercell and displacements
siesta: k-grid:     8     0     0      0.000
siesta: k-grid:     0     8     0      0.000
siesta: k-grid:     0     0     8      0.000

superc: Internal auxiliary supercell:     5 x     5 x     5  =     125
superc: Number of atoms, orbitals, and projectors:    250   3250   1000

outcell: Unit cell vectors (Ang):
       -0.000008    3.314702    3.314702
        3.314702   -0.000008    3.314702
        3.314702    3.314702   -0.000008

outcell: Cell vector modules (Ang)   :    4.687696    4.687696    4.687696
outcell: Cell angles (23,13,12) (deg):     60.0002     60.0002     60.0002
outcell: Cell volume (Ang**3)        :     72.8392
<dSpData1D:S at geom step 3
  <sparsity:sparsity for geom step 3
    nrows_g=26 nrows=14 sparsity=9.0148 nnzs=6094, refcount: 7>
  <dData1D:(new from dSpData1D) n=6094, refcount: 1>
refcount: 1>
new_DM -- step:     4
Re-using DM from previous geometries...
Number of DMs in history: 1
 DM extrapolation coefficients: 
1   1.00000
New DM after history re-use:
<dSpData2D:SpM extrapolated using coords
  <sparsity:sparsity for geom step 3
    nrows_g=26 nrows=14 sparsity=9.0148 nnzs=6094, refcount: 9>
  <dData2D:(temp array for extrapolation) n=6094 m=1, refcount: 1>
refcount: 1>
Note: For starting DM, Qtot, Tr[D*S] =          8.00000000          8.14240409
No. of atoms with KB's overlaping orbs in proc 0. Max # of overlaps:       8      65

InitMesh: MESH = 40 x 40 x 40 = 64000
InitMesh: Mesh cutoff (required, used) =   300.000   301.851 Ry
New grid distribution [1]: sub = 2
New grid distribution [2]: sub = 2
New grid distribution [3]: sub = 2
Setting up quadratic distribution...

        iscf     Eharris(eV)        E_KS(eV)     FreeEng(eV)     dDmax    Ef(eV) dHmax(eV)
   scf:    1     -211.503694     -211.631323     -211.632215  0.047711 -4.540740  0.052199
   scf:    2     -211.631398     -211.631369     -211.632287  0.002554 -4.501255  0.009098
   scf:    3     -211.631383     -211.631376     -211.632290  0.000401 -4.506936  0.000271
   scf:    4     -211.631376     -211.631376     -211.632290  0.000027 -4.506871  0.000203

SCF Convergence by DM+H criterion
max |DM_out - DM_in|         :     0.0000273439
max |H_out - H_in|      (eV) :     0.0002029371
SCF cycle converged after 4 iterations

Using DM_out to compute the final energy and forces
No. of atoms with KB's overlaping orbs in proc 0. Max # of overlaps:       8      65

siesta: E_KS(eV) =             -211.6314

siesta: Atomic forces (eV/Ang):
----------------------------------------
   Tot    0.000000   -0.000000    0.000000
----------------------------------------
   Max    0.000036
   Res    0.000036    sqrt( Sum f_i^2 / 3N )
----------------------------------------
   Max    0.000036    constrained

Stress tensor Voigt[x,y,z,yz,xz,xy] (kbar):      131.80      131.80      131.80        0.00        0.00        0.00
(Free)E + p*V (eV/cell)     -217.6244
Target enthalpy (eV/cell)     -211.6323

siesta: Stress tensor (static) (eV/Ang**3):
         0.082265    0.000003    0.000003
         0.000003    0.082265    0.000003
         0.000003    0.000003    0.082265

siesta: Pressure (static):       -131.80363184  kBar

siesta: Stress tensor (total) (eV/Ang**3):
         0.082265    0.000003    0.000003
         0.000003    0.082265    0.000003
         0.000003    0.000003    0.082265

siesta: Pressure (total):       -131.80363184  kBar

                     ====================================
                        Begin CG opt. move =      4
                     ====================================
k-point displ. along   1 input, could be:     0.00    0.50
k-point displ. along   2 input, could be:     0.00    0.50
k-point displ. along   3 input, could be:     0.00    0.50
 Kpoints in:          320 . Kpoints trimmed:          296

siesta: k-grid: Number of k-points = 296
siesta: k-points from Monkhorst-Pack grid
siesta: k-cutoff (effective) =    18.332 Ang
siesta: k-point supercell and displacements
siesta: k-grid:     8     0     0      0.000
siesta: k-grid:     0     8     0      0.000
siesta: k-grid:     0     0     8      0.000

superc: Internal auxiliary supercell:     5 x     5 x     5  =     125
superc: Number of atoms, orbitals, and projectors:    250   3250   1000

outcell: Unit cell vectors (Ang):
       -0.000011    3.240615    3.240615
        3.240615   -0.000011    3.240615
        3.240615    3.240615   -0.000011

outcell: Cell vector modules (Ang)   :    4.582922    4.582922    4.582922
outcell: Cell angles (23,13,12) (deg):     60.0002     60.0002     60.0002
outcell: Cell volume (Ang**3)        :     68.0636
<dSpData1D:S at geom step 4
  <sparsity:sparsity for geom step 4
    nrows_g=26 nrows=14 sparsity=9.1746 nnzs=6202, refcount: 7>
  <dData1D:(new from dSpData1D) n=6202, refcount: 1>
refcount: 1>
new_DM -- step:     5
Re-using DM from previous geometries...
Number of DMs in history: 1
 DM extrapolation coefficients: 
1   1.00000
New DM after history re-use:
<dSpData2D:SpM extrapolated using coords
  <sparsity:sparsity for geom step 4
    nrows_g=26 nrows=14 sparsity=9.1746 nnzs=6202, refcount: 9>
  <dData2D:(temp array for extrapolation) n=6202 m=1, refcount: 1>
refcount: 1>
Note: For starting DM, Qtot, Tr[D*S] =          8.00000000          8.14655274
No. of atoms with KB's overlaping orbs in proc 0. Max # of overlaps:       8      65

InitMesh: MESH = 40 x 40 x 40 = 64000
InitMesh: Mesh cutoff (required, used) =   300.000   315.810 Ry
New grid distribution [1]: sub = 2
New grid distribution [2]: sub = 2
New grid distribution [3]: sub = 2
Setting up quadratic distribution...

        iscf     Eharris(eV)        E_KS(eV)     FreeEng(eV)     dDmax    Ef(eV) dHmax(eV)
   scf:    1     -211.875091     -212.031682     -212.032113  0.051853 -4.465821  0.053213
   scf:    2     -212.031793     -212.031747     -212.032191  0.002512 -4.424156  0.009189
   scf:    3     -212.031757     -212.031753     -212.032194  0.000393 -4.430105  0.000274
   scf:    4     -212.031753     -212.031753     -212.032194  0.000028 -4.430041  0.000205

SCF Convergence by DM+H criterion
max |DM_out - DM_in|         :     0.0000284909
max |H_out - H_in|      (eV) :     0.0002053374
SCF cycle converged after 4 iterations

Using DM_out to compute the final energy and forces
No. of atoms with KB's overlaping orbs in proc 0. Max # of overlaps:       8      65

siesta: E_KS(eV) =             -212.0318

siesta: Atomic forces (eV/Ang):
----------------------------------------
   Tot    0.000000   -0.000000   -0.000000
----------------------------------------
   Max    0.000072
   Res    0.000072    sqrt( Sum f_i^2 / 3N )
----------------------------------------
   Max    0.000072    constrained

Stress tensor Voigt[x,y,z,yz,xz,xy] (kbar):      136.33      136.33      136.33        0.00        0.00        0.00
(Free)E + p*V (eV/cell)     -217.8237
Target enthalpy (eV/cell)     -212.0322

siesta: Stress tensor (static) (eV/Ang**3):
         0.085090    0.000003    0.000003
         0.000003    0.085090    0.000003
         0.000003    0.000003    0.085090

siesta: Pressure (static):       -136.32886710  kBar

siesta: Stress tensor (total) (eV/Ang**3):
         0.085090    0.000003    0.000003
         0.000003    0.085090    0.000003
         0.000003    0.000003    0.085090

siesta: Pressure (total):       -136.32886710  kBar

                     ====================================
                        Begin CG opt. move =      5
                     ====================================
k-point displ. along   1 input, could be:     0.00    0.50
k-point displ. along   2 input, could be:     0.00    0.50
k-point displ. along   3 input, could be:     0.00    0.50
 Kpoints in:          320 . Kpoints trimmed:          296

siesta: k-grid: Number of k-points = 296
siesta: k-points from Monkhorst-Pack grid
siesta: k-cutoff (effective) =    17.913 Ang
siesta: k-point supercell and displacements
siesta: k-grid:     8     0     0      0.000
siesta: k-grid:     0     8     0      0.000
siesta: k-grid:     0     0     8      0.000

superc: Internal auxiliary supercell:     5 x     5 x     5  =     125
superc: Number of atoms, orbitals, and projectors:    250   3250   1000

outcell: Unit cell vectors (Ang):
       -0.000015    3.166529    3.166529
        3.166529   -0.000015    3.166529
        3.166529    3.166529   -0.000015

outcell: Cell vector modules (Ang)   :    4.478148    4.478148    4.478148
outcell: Cell angles (23,13,12) (deg):     60.0003     60.0003     60.0003
outcell: Cell volume (Ang**3)        :     63.5014
<dSpData1D:S at geom step 5
  <sparsity:sparsity for geom step 5
    nrows_g=26 nrows=14 sparsity=9.3876 nnzs=6346, refcount: 7>
  <dData1D:(new from dSpData1D) n=6346, refcount: 1>
refcount: 1>
new_DM -- step:     6
Re-using DM from previous geometries...
Number of DMs in history: 1
 DM extrapolation coefficients: 
1   1.00000
New DM after history re-use:
<dSpData2D:SpM extrapolated using coords
  <sparsity:sparsity for geom step 5
    nrows_g=26 nrows=14 sparsity=9.3876 nnzs=6346, refcount: 9>
  <dData2D:(temp array for extrapolation) n=6346 m=1, refcount: 1>
refcount: 1>
Note: For starting DM, Qtot, Tr[D*S] =          8.00000000          8.15099668
No. of atoms with KB's overlaping orbs in proc 0. Max # of overlaps:       8      65

InitMesh: MESH = 40 x 40 x 40 = 64000
InitMesh: Mesh cutoff (required, used) =   300.000   330.760 Ry
New grid distribution [1]: sub = 2
New grid distribution [2]: sub = 2
New grid distribution [3]: sub = 2
Setting up quadratic distribution...

        iscf     Eharris(eV)        E_KS(eV)     FreeEng(eV)     dDmax    Ef(eV) dHmax(eV)
   scf:    1     -212.239007     -212.424209     -212.424412  0.057581 -4.448622  0.054217
   scf:    2     -212.424358     -212.424294     -212.424497  0.002418 -4.403100  0.009244
   scf:    3     -212.424300     -212.424297     -212.424501  0.000377 -4.409563  0.000284
   scf:    4     -212.424297     -212.424297     -212.424501  0.000030 -4.409510  0.000214

SCF Convergence by DM+H criterion
max |DM_out - DM_in|         :     0.0000295835
max |H_out - H_in|      (eV) :     0.0002137874
SCF cycle converged after 4 iterations

Using DM_out to compute the final energy and forces
No. of atoms with KB's overlaping orbs in proc 0. Max # of overlaps:       8      65

siesta: E_KS(eV) =             -212.4243

siesta: Atomic forces (eV/Ang):
----------------------------------------
   Tot    0.000000   -0.000000    0.000000
----------------------------------------
   Max    0.000126
   Res    0.000126    sqrt( Sum f_i^2 / 3N )
----------------------------------------
   Max    0.000126    constrained

Stress tensor Voigt[x,y,z,yz,xz,xy] (kbar):      138.67      138.67      138.67        0.00        0.00        0.00
(Free)E + p*V (eV/cell)     -217.9206
Target enthalpy (eV/cell)     -212.4245

siesta: Stress tensor (static) (eV/Ang**3):
         0.086550    0.000002    0.000002
         0.000002    0.086550    0.000002
         0.000002    0.000002    0.086550

siesta: Pressure (static):       -138.66852994  kBar

siesta: Stress tensor (total) (eV/Ang**3):
         0.086550    0.000002    0.000002
         0.000002    0.086550    0.000002
         0.000002    0.000002    0.086550

siesta: Pressure (total):       -138.66852994  kBar

                     ====================================
                        Begin CG opt. move =      6
                     ====================================
k-point displ. along   1 input, could be:     0.00    0.50
k-point displ. along   2 input, could be:     0.00    0.50
k-point displ. along   3 input, could be:     0.00    0.50
 Kpoints in:          320 . Kpoints trimmed:          296

siesta: k-grid: Number of k-points = 296
siesta: k-points from Monkhorst-Pack grid
siesta: k-cutoff (effective) =    17.493 Ang
siesta: k-point supercell and displacements
siesta: k-grid:     8     0     0      0.000
siesta: k-grid:     0     8     0      0.000
siesta: k-grid:     0     0     8      0.000

superc: Internal auxiliary supercell:     5 x     5 x     5  =     125
superc: Number of atoms, orbitals, and projectors:    250   3250   1000

outcell: Unit cell vectors (Ang):
       -0.000018    3.092442    3.092442
        3.092442   -0.000018    3.092442
        3.092442    3.092442   -0.000018

outcell: Cell vector modules (Ang)   :    4.373374    4.373374    4.373374
outcell: Cell angles (23,13,12) (deg):     60.0004     60.0004     60.0004
outcell: Cell volume (Ang**3)        :     59.1478
<dSpData1D:S at geom step 6
  <sparsity:sparsity for geom step 6
    nrows_g=26 nrows=14 sparsity=14.9438 nnzs=10102, refcount: 7>
  <dData1D:(new from dSpData1D) n=10102, refcount: 1>
refcount: 1>
new_DM -- step:     7
Re-using DM from previous geometries...
Number of DMs in history: 1
 DM extrapolation coefficients: 
1   1.00000
New DM after history re-use:
<dSpData2D:SpM extrapolated using coords
  <sparsity:sparsity for geom step 6
    nrows_g=26 nrows=14 sparsity=14.9438 nnzs=10102, refcount: 9>
  <dData2D:(temp array for extrapolation) n=10102 m=1, refcount: 1>
refcount: 1>
Note: For starting DM, Qtot, Tr[D*S] =          8.00000000          8.15583788
No. of atoms with KB's overlaping orbs in proc 0. Max # of overlaps:      17     161

InitMesh: MESH = 40 x 40 x 40 = 64000
InitMesh: Mesh cutoff (required, used) =   300.000   346.797 Ry
New grid distribution [1]: sub = 2
New grid distribution [2]: sub = 2
New grid distribution [3]: sub = 2
Setting up quadratic distribution...

        iscf     Eharris(eV)        E_KS(eV)     FreeEng(eV)     dDmax    Ef(eV) dHmax(eV)
   scf:    1     -212.586178     -212.799920     -212.800118  0.063114 -4.458271  0.055690
   scf:    2     -212.800089     -212.800016     -212.800213  0.002577 -4.410688  0.009467
   scf:    3     -212.800023     -212.800020     -212.800217  0.000355 -4.417444  0.000299
   scf:    4     -212.800020     -212.800020     -212.800217  0.000031 -4.417393  0.000226

SCF Convergence by DM+H criterion
max |DM_out - DM_in|         :     0.0000306330
max |H_out - H_in|      (eV) :     0.0002263359
SCF cycle converged after 4 iterations

Using DM_out to compute the final energy and forces
No. of atoms with KB's overlaping orbs in proc 0. Max # of overlaps:      17     161

siesta: E_KS(eV) =             -212.8000

siesta: Atomic forces (eV/Ang):
----------------------------------------
   Tot    0.000000   -0.000000    0.000000
----------------------------------------
   Max    0.000187
   Res    0.000187    sqrt( Sum f_i^2 / 3N )
----------------------------------------
   Max    0.000187    constrained

Stress tensor Voigt[x,y,z,yz,xz,xy] (kbar):      136.99      136.99      136.99        0.00        0.00        0.00
(Free)E + p*V (eV/cell)     -217.8577
Target enthalpy (eV/cell)     -212.8002

siesta: Stress tensor (static) (eV/Ang**3):
         0.085505    0.000001    0.000001
         0.000001    0.085505    0.000001
         0.000001    0.000001    0.085505

siesta: Pressure (static):       -136.99428263  kBar

siesta: Stress tensor (total) (eV/Ang**3):
         0.085505    0.000001    0.000001
         0.000001    0.085505    0.000001
         0.000001    0.000001    0.085505

siesta: Pressure (total):       -136.99428263  kBar

                     ====================================
                        Begin CG opt. move =      7
                     ====================================
k-point displ. along   1 input, could be:     0.00    0.50
k-point displ. along   2 input, could be:     0.00    0.50
k-point displ. along   3 input, could be:     0.00    0.50
 Kpoints in:          320 . Kpoints trimmed:          296

siesta: k-grid: Number of k-points = 296
siesta: k-points from Monkhorst-Pack grid
siesta: k-cutoff (effective) =    17.074 Ang
siesta: k-point supercell and displacements
siesta: k-grid:     8     0     0      0.000
siesta: k-grid:     0     8     0      0.000
siesta: k-grid:     0     0     8      0.000

superc: Internal auxiliary supercell:     5 x     5 x     5  =     125
superc: Number of atoms, orbitals, and projectors:    250   3250   1000

outcell: Unit cell vectors (Ang):
       -0.000021    3.018356    3.018356
        3.018356   -0.000021    3.018356
        3.018356    3.018356   -0.000021

outcell: Cell vector modules (Ang)   :    4.268600    4.268600    4.268600
outcell: Cell angles (23,13,12) (deg):     60.0005     60.0005     60.0005
outcell: Cell volume (Ang**3)        :     54.9979
<dSpData1D:S at geom step 7
  <sparsity:sparsity for geom step 7
    nrows_g=26 nrows=14 sparsity=14.9438 nnzs=10102, refcount: 7>
  <dData1D:(new from dSpData1D) n=10102, refcount: 1>
refcount: 1>
new_DM -- step:     8
Re-using DM from previous geometries...
Number of DMs in history: 1
 DM extrapolation coefficients: 
1   1.00000
New DM after history re-use:
<dSpData2D:SpM extrapolated using coords
  <sparsity:sparsity for geom step 7
    nrows_g=26 nrows=14 sparsity=14.9438 nnzs=10102, refcount: 9>
  <dData2D:(temp array for extrapolation) n=10102 m=1, refcount: 1>
refcount: 1>
Note: For starting DM, Qtot, Tr[D*S] =          8.00000000          8.16072764
No. of atoms with KB's overlaping orbs in proc 0. Max # of overlaps:      17     161

InitMesh: MESH = 40 x 40 x 40 = 64000
InitMesh: Mesh cutoff (required, used) =   300.000   364.030 Ry
New grid distribution [1]: sub = 2
New grid distribution [2]: sub = 2
New grid distribution [3]: sub = 2
Setting up quadratic distribution...

        iscf     Eharris(eV)        E_KS(eV)     FreeEng(eV)     dDmax    Ef(eV) dHmax(eV)
   scf:    1     -212.903802     -213.146270     -213.146308  0.074435 -4.371429  0.056171
   scf:    2     -213.146456     -213.146375     -213.146411  0.003392 -4.320145  0.009435
   scf:    3     -213.146382     -213.146379     -213.146415  0.000440 -4.327394  0.000335
   scf:    4     -213.146379     -213.146379     -213.146415  0.000032 -4.327371  0.000255

SCF Convergence by DM+H criterion
max |DM_out - DM_in|         :     0.0000319616
max |H_out - H_in|      (eV) :     0.0002547180
SCF cycle converged after 4 iterations

Using DM_out to compute the final energy and forces
No. of atoms with KB's overlaping orbs in proc 0. Max # of overlaps:      17     161

siesta: E_KS(eV) =             -213.1464

siesta: Atomic forces (eV/Ang):
----------------------------------------
   Tot    0.000000   -0.000000   -0.000000
----------------------------------------
   Max    0.000314
   Res    0.000314    sqrt( Sum f_i^2 / 3N )
----------------------------------------
   Max    0.000314    constrained

Stress tensor Voigt[x,y,z,yz,xz,xy] (kbar):      129.32      129.32      129.32       -0.00       -0.00       -0.00
(Free)E + p*V (eV/cell)     -217.5857
Target enthalpy (eV/cell)     -213.1464

siesta: Stress tensor (static) (eV/Ang**3):
         0.080716   -0.000001   -0.000001
        -0.000001    0.080716   -0.000001
        -0.000001   -0.000001    0.080716

siesta: Pressure (static):       -129.32208331  kBar

siesta: Stress tensor (total) (eV/Ang**3):
         0.080716   -0.000001   -0.000001
        -0.000001    0.080716   -0.000001
        -0.000001   -0.000001    0.080716

siesta: Pressure (total):       -129.32208331  kBar

                     ====================================
                        Begin CG opt. move =      8
                     ====================================
k-point displ. along   1 input, could be:     0.00    0.50
k-point displ. along   2 input, could be:     0.00    0.50
k-point displ. along   3 input, could be:     0.00    0.50
 Kpoints in:          320 . Kpoints trimmed:          296

siesta: k-grid: Number of k-points = 296
siesta: k-points from Monkhorst-Pack grid
siesta: k-cutoff (effective) =    16.655 Ang
siesta: k-point supercell and displacements
siesta: k-grid:     8     0     0      0.000
siesta: k-grid:     0     8     0      0.000
siesta: k-grid:     0     0     8      0.000

superc: Internal auxiliary supercell:     5 x     5 x     5  =     125
superc: Number of atoms, orbitals, and projectors:    250   3250   1000

outcell: Unit cell vectors (Ang):
       -0.000025    2.944270    2.944270
        2.944270   -0.000025    2.944270
        2.944270    2.944270   -0.000025

outcell: Cell vector modules (Ang)   :    4.163826    4.163826    4.163826
outcell: Cell angles (23,13,12) (deg):     60.0006     60.0006     60.0006
outcell: Cell volume (Ang**3)        :     51.0468
<dSpData1D:S at geom step 8
  <sparsity:sparsity for geom step 8
    nrows_g=26 nrows=14 sparsity=14.9970 nnzs=10138, refcount: 7>
  <dData1D:(new from dSpData1D) n=10138, refcount: 1>
refcount: 1>
new_DM -- step:     9
Re-using DM from previous geometries...
Number of DMs in history: 1
 DM extrapolation coefficients: 
1   1.00000
New DM after history re-use:
<dSpData2D:SpM extrapolated using coords
  <sparsity:sparsity for geom step 8
    nrows_g=26 nrows=14 sparsity=14.9970 nnzs=10138, refcount: 9>
  <dData2D:(temp array for extrapolation) n=10138 m=1, refcount: 1>
refcount: 1>
Note: For starting DM, Qtot, Tr[D*S] =          8.00000000          8.16508208
No. of atoms with KB's overlaping orbs in proc 0. Max # of overlaps:      17     161

InitMesh: MESH = 36 x 36 x 36 = 46656
InitMesh: Mesh cutoff (required, used) =   300.000   309.890 Ry
New grid distribution [1]: sub = 2
New grid distribution [2]: sub = 2
New grid distribution [3]: sub = 2
Setting up quadratic distribution...

        iscf     Eharris(eV)        E_KS(eV)     FreeEng(eV)     dDmax    Ef(eV) dHmax(eV)
   scf:    1     -213.169580     -213.446011     -213.446011  0.079035 -4.065665  0.057423
   scf:    2     -213.446218     -213.446129     -213.446129  0.004476 -4.018588  0.009877
   scf:    3     -213.446138     -213.446134     -213.446134  0.000613 -4.025166  0.000335
   scf:    4     -213.446134     -213.446134     -213.446134  0.000028 -4.025127  0.000255

SCF Convergence by DM+H criterion
max |DM_out - DM_in|         :     0.0000281828
max |H_out - H_in|      (eV) :     0.0002548373
SCF cycle converged after 4 iterations

Using DM_out to compute the final energy and forces
No. of atoms with KB's overlaping orbs in proc 0. Max # of overlaps:      17     161

siesta: E_KS(eV) =             -213.4461

siesta: Atomic forces (eV/Ang):
----------------------------------------
   Tot   -0.000000   -0.000000   -0.000000
----------------------------------------
   Max    0.000420
   Res    0.000420    sqrt( Sum f_i^2 / 3N )
----------------------------------------
   Max    0.000420    constrained

Stress tensor Voigt[x,y,z,yz,xz,xy] (kbar):      111.61      111.61      111.61       -0.00       -0.00       -0.00
(Free)E + p*V (eV/cell)     -217.0021
Target enthalpy (eV/cell)     -213.4461

siesta: Stress tensor (static) (eV/Ang**3):
         0.069662   -0.000002   -0.000002
        -0.000002    0.069662   -0.000002
        -0.000002   -0.000002    0.069662

siesta: Pressure (static):       -111.61041978  kBar

siesta: Stress tensor (total) (eV/Ang**3):
         0.069662   -0.000002   -0.000002
        -0.000002    0.069662   -0.000002
        -0.000002   -0.000002    0.069662

siesta: Pressure (total):       -111.61041978  kBar

                     ====================================
                        Begin CG opt. move =      9
                     ====================================
k-point displ. along   1 input, could be:     0.00    0.50
k-point displ. along   2 input, could be:     0.00    0.50
k-point displ. along   3 input, could be:     0.00    0.50
 Kpoints in:          320 . Kpoints trimmed:          296

siesta: k-grid: Number of k-points = 296
siesta: k-points from Monkhorst-Pack grid
siesta: k-cutoff (effective) =    16.236 Ang
siesta: k-point supercell and displacements
siesta: k-grid:     8     0     0      0.000
siesta: k-grid:     0     8     0      0.000
siesta: k-grid:     0     0     8      0.000

superc: Internal auxiliary supercell:     5 x     5 x     5  =     125
superc: Number of atoms, orbitals, and projectors:    250   3250   1000

outcell: Unit cell vectors (Ang):
       -0.000028    2.870183    2.870183
        2.870183   -0.000028    2.870183
        2.870183    2.870183   -0.000028

outcell: Cell vector modules (Ang)   :    4.059052    4.059052    4.059052
outcell: Cell angles (23,13,12) (deg):     60.0006     60.0006     60.0006
outcell: Cell volume (Ang**3)        :     47.2895
<dSpData1D:S at geom step 9
  <sparsity:sparsity for geom step 9
    nrows_g=26 nrows=14 sparsity=14.9970 nnzs=10138, refcount: 7>
  <dData1D:(new from dSpData1D) n=10138, refcount: 1>
refcount: 1>
new_DM -- step:    10
Re-using DM from previous geometries...
Number of DMs in history: 1
 DM extrapolation coefficients: 
1   1.00000
New DM after history re-use:
<dSpData2D:SpM extrapolated using coords
  <sparsity:sparsity for geom step 9
    nrows_g=26 nrows=14 sparsity=14.9970 nnzs=10138, refcount: 9>
  <dData2D:(temp array for extrapolation) n=10138 m=1, refcount: 1>
refcount: 1>
Note: For starting DM, Qtot, Tr[D*S] =          8.00000000          8.16710705
No. of atoms with KB's overlaping orbs in proc 0. Max # of overlaps:      17     161

InitMesh: MESH = 36 x 36 x 36 = 46656
InitMesh: Mesh cutoff (required, used) =   300.000   326.093 Ry
New grid distribution [1]: sub = 2
New grid distribution [2]: sub = 2
New grid distribution [3]: sub = 2
Setting up quadratic distribution...

        iscf     Eharris(eV)        E_KS(eV)     FreeEng(eV)     dDmax    Ef(eV) dHmax(eV)
   scf:    1     -213.350658     -213.675329     -213.675329  0.088577 -4.005329  0.059003
   scf:    2     -213.675571     -213.675467     -213.675467  0.005777 -3.963477  0.010554
   scf:    3     -213.675478     -213.675473     -213.675473  0.000839 -3.964500  0.000326
   scf:    4     -213.675473     -213.675473     -213.675473  0.000022 -3.964466  0.000249

SCF Convergence by DM+H criterion
max |DM_out - DM_in|         :     0.0000219601
max |H_out - H_in|      (eV) :     0.0002486818
SCF cycle converged after 4 iterations

Using DM_out to compute the final energy and forces
No. of atoms with KB's overlaping orbs in proc 0. Max # of overlaps:      17     161

siesta: E_KS(eV) =             -213.6755

siesta: Atomic forces (eV/Ang):
----------------------------------------
   Tot    0.000000    0.000000    0.000000
----------------------------------------
   Max    0.000561
   Res    0.000561    sqrt( Sum f_i^2 / 3N )
----------------------------------------
   Max    0.000561    constrained

Stress tensor Voigt[x,y,z,yz,xz,xy] (kbar):       81.34       81.34       81.34       -0.01       -0.01       -0.01
(Free)E + p*V (eV/cell)     -216.0764
Target enthalpy (eV/cell)     -213.6755

siesta: Stress tensor (static) (eV/Ang**3):
         0.050770   -0.000007   -0.000007
        -0.000007    0.050770   -0.000007
        -0.000007   -0.000007    0.050770

siesta: Pressure (static):        -81.34316509  kBar

siesta: Stress tensor (total) (eV/Ang**3):
         0.050770   -0.000007   -0.000007
        -0.000007    0.050770   -0.000007
        -0.000007   -0.000007    0.050770

siesta: Pressure (total):        -81.34316509  kBar

                     ====================================
                        Begin CG opt. move =     10
                     ====================================
k-point displ. along   1 input, could be:     0.00    0.50
k-point displ. along   2 input, could be:     0.00    0.50
k-point displ. along   3 input, could be:     0.00    0.50
 Kpoints in:          320 . Kpoints trimmed:          296

siesta: k-grid: Number of k-points = 296
siesta: k-points from Monkhorst-Pack grid
siesta: k-cutoff (effective) =    15.817 Ang
siesta: k-point supercell and displacements
siesta: k-grid:     8     0     0      0.000
siesta: k-grid:     0     8     0      0.000
siesta: k-grid:     0     0     8      0.000

superc: Internal auxiliary supercell:     5 x     5 x     5  =     125
superc: Number of atoms, orbitals, and projectors:    250   3250   1000

outcell: Unit cell vectors (Ang):
       -0.000031    2.796097    2.796097
        2.796097   -0.000031    2.796097
        2.796097    2.796097   -0.000031

outcell: Cell vector modules (Ang)   :    3.954278    3.954278    3.954278
outcell: Cell angles (23,13,12) (deg):     60.0007     60.0007     60.0007
outcell: Cell volume (Ang**3)        :     43.7214
<dSpData1D:S at geom step 10
  <sparsity:sparsity for geom step 10
    nrows_g=26 nrows=14 sparsity=15.2633 nnzs=10318, refcount: 7>
  <dData1D:(new from dSpData1D) n=10318, refcount: 1>
refcount: 1>
new_DM -- step:    11
Re-using DM from previous geometries...
Number of DMs in history: 1
 DM extrapolation coefficients: 
1   1.00000
New DM after history re-use:
<dSpData2D:SpM extrapolated using coords
  <sparsity:sparsity for geom step 10
    nrows_g=26 nrows=14 sparsity=15.2633 nnzs=10318, refcount: 9>
  <dData2D:(temp array for extrapolation) n=10318 m=1, refcount: 1>
refcount: 1>
Note: For starting DM, Qtot, Tr[D*S] =          8.00000000          8.16784299
No. of atoms with KB's overlaping orbs in proc 0. Max # of overlaps:      17     161

InitMesh: MESH = 36 x 36 x 36 = 46656
InitMesh: Mesh cutoff (required, used) =   300.000   343.602 Ry
New grid distribution [1]: sub = 2
New grid distribution [2]: sub = 2
New grid distribution [3]: sub = 2
Setting up quadratic distribution...

        iscf     Eharris(eV)        E_KS(eV)     FreeEng(eV)     dDmax    Ef(eV) dHmax(eV)
   scf:    1     -213.421045     -213.808735     -213.808735  0.090248 -4.050646  0.060129
   scf:    2     -213.809014     -213.808896     -213.808896  0.007228 -4.008454  0.011223
   scf:    3     -213.808909     -213.808903     -213.808903  0.001103 -4.014585  0.000317
   scf:    4     -213.808903     -213.808903     -213.808903  0.000016 -4.014545  0.000241

SCF Convergence by DM+H criterion
max |DM_out - DM_in|         :     0.0000159094
max |H_out - H_in|      (eV) :     0.0002414138
SCF cycle converged after 4 iterations

Using DM_out to compute the final energy and forces
No. of atoms with KB's overlaping orbs in proc 0. Max # of overlaps:      17     161

siesta: E_KS(eV) =             -213.8089

siesta: Atomic forces (eV/Ang):
----------------------------------------
   Tot   -0.000000   -0.000000    0.000000
----------------------------------------
   Max    0.000737
   Res    0.000737    sqrt( Sum f_i^2 / 3N )
----------------------------------------
   Max    0.000737    constrained

Stress tensor Voigt[x,y,z,yz,xz,xy] (kbar):       34.75       34.75       34.75       -0.02       -0.02       -0.02
(Free)E + p*V (eV/cell)     -214.7573
Target enthalpy (eV/cell)     -213.8089

siesta: Stress tensor (static) (eV/Ang**3):
         0.021692   -0.000013   -0.000013
        -0.000013    0.021692   -0.000013
        -0.000013   -0.000013    0.021692

siesta: Pressure (static):        -34.75431669  kBar

siesta: Stress tensor (total) (eV/Ang**3):
         0.021692   -0.000013   -0.000013
        -0.000013    0.021692   -0.000013
        -0.000013   -0.000013    0.021692

siesta: Pressure (total):        -34.75431669  kBar

                     ====================================
                        Begin CG opt. move =     11
                     ====================================
k-point displ. along   1 input, could be:     0.00    0.50
k-point displ. along   2 input, could be:     0.00    0.50
k-point displ. along   3 input, could be:     0.00    0.50
 Kpoints in:          320 . Kpoints trimmed:          296

siesta: k-grid: Number of k-points = 296
siesta: k-points from Monkhorst-Pack grid
siesta: k-cutoff (effective) =    15.398 Ang
siesta: k-point supercell and displacements
siesta: k-grid:     8     0     0      0.000
siesta: k-grid:     0     8     0      0.000
siesta: k-grid:     0     0     8      0.000

superc: Internal auxiliary supercell:     5 x     5 x     5  =     125
superc: Number of atoms, orbitals, and projectors:    250   3250   1000

outcell: Unit cell vectors (Ang):
       -0.000034    2.722010    2.722010
        2.722010   -0.000034    2.722010
        2.722010    2.722010   -0.000034

outcell: Cell vector modules (Ang)   :    3.849504    3.849504    3.849504
outcell: Cell angles (23,13,12) (deg):     60.0008     60.0008     60.0008
outcell: Cell volume (Ang**3)        :     40.3374
<dSpData1D:S at geom step 11
  <sparsity:sparsity for geom step 11
    nrows_g=26 nrows=14 sparsity=16.8580 nnzs=11396, refcount: 7>
  <dData1D:(new from dSpData1D) n=11396, refcount: 1>
refcount: 1>
new_DM -- step:    12
Re-using DM from previous geometries...
Number of DMs in history: 1
 DM extrapolation coefficients: 
1   1.00000
New DM after history re-use:
<dSpData2D:SpM extrapolated using coords
  <sparsity:sparsity for geom step 11
    nrows_g=26 nrows=14 sparsity=16.8580 nnzs=11396, refcount: 9>
  <dData2D:(temp array for extrapolation) n=11396 m=1, refcount: 1>
refcount: 1>
Note: For starting DM, Qtot, Tr[D*S] =          8.00000000          8.16788820
No. of atoms with KB's overlaping orbs in proc 0. Max # of overlaps:      17     161

InitMesh: MESH = 36 x 36 x 36 = 46656
InitMesh: Mesh cutoff (required, used) =   300.000   362.560 Ry
New grid distribution [1]: sub = 2
New grid distribution [2]: sub = 2
New grid distribution [3]: sub = 2
Setting up quadratic distribution...

        iscf     Eharris(eV)        E_KS(eV)     FreeEng(eV)     dDmax    Ef(eV) dHmax(eV)
   scf:    1     -213.349517     -213.814278     -213.814278  0.081830 -4.110288  0.059859
   scf:    2     -213.814582     -213.814454     -213.814454  0.008508 -4.068568  0.011560
   scf:    3     -213.814470     -213.814463     -213.814463  0.001339 -4.075071  0.000328
   scf:    4     -213.814463     -213.814463     -213.814463  0.000013 -4.074945  0.000249

SCF Convergence by DM+H criterion
max |DM_out - DM_in|         :     0.0000131776
max |H_out - H_in|      (eV) :     0.0002491435
SCF cycle converged after 4 iterations

Using DM_out to compute the final energy and forces
No. of atoms with KB's overlaping orbs in proc 0. Max # of overlaps:      17     161

siesta: E_KS(eV) =             -213.8145

siesta: Atomic forces (eV/Ang):
----------------------------------------
   Tot   -0.000000   -0.000000   -0.000000
----------------------------------------
   Max    0.000971
   Res    0.000971    sqrt( Sum f_i^2 / 3N )
----------------------------------------
   Max    0.000971    constrained

Stress tensor Voigt[x,y,z,yz,xz,xy] (kbar):      -34.63      -34.63      -34.63       -0.04       -0.04       -0.04
(Free)E + p*V (eV/cell)     -212.9425
Target enthalpy (eV/cell)     -213.8145

siesta: Stress tensor (static) (eV/Ang**3):
        -0.021616   -0.000023   -0.000023
        -0.000023   -0.021616   -0.000023
        -0.000023   -0.000023   -0.021616

siesta: Pressure (static):         34.63209925  kBar

siesta: Stress tensor (total) (eV/Ang**3):
        -0.021616   -0.000023   -0.000023
        -0.000023   -0.021616   -0.000023
        -0.000023   -0.000023   -0.021616

siesta: Pressure (total):         34.63209925  kBar

                     ====================================
                        Begin CG opt. move =     12
                     ====================================
k-point displ. along   1 input, could be:     0.00    0.50
k-point displ. along   2 input, could be:     0.00    0.50
k-point displ. along   3 input, could be:     0.00    0.50
 Kpoints in:          320 . Kpoints trimmed:          296

siesta: k-grid: Number of k-points = 296
siesta: k-points from Monkhorst-Pack grid
siesta: k-cutoff (effective) =    15.599 Ang
siesta: k-point supercell and displacements
siesta: k-grid:     8     0     0      0.000
siesta: k-grid:     0     8     0      0.000
siesta: k-grid:     0     0     8      0.000

superc: Internal auxiliary supercell:     5 x     5 x     5  =     125
superc: Number of atoms, orbitals, and projectors:    250   3250   1000

outcell: Unit cell vectors (Ang):
       -0.000033    2.757497    2.757497
        2.757497   -0.000033    2.757497
        2.757497    2.757497   -0.000033

outcell: Cell vector modules (Ang)   :    3.899690    3.899690    3.899690
outcell: Cell angles (23,13,12) (deg):     60.0008     60.0008     60.0008
outcell: Cell volume (Ang**3)        :     41.9356
<dSpData1D:S at geom step 12
  <sparsity:sparsity for geom step 12
    nrows_g=26 nrows=14 sparsity=16.7781 nnzs=11342, refcount: 7>
  <dData1D:(new from dSpData1D) n=11342, refcount: 1>
refcount: 1>
new_DM -- step:    13
Re-using DM from previous geometries...
Number of DMs in history: 1
 DM extrapolation coefficients: 
1   1.00000
New DM after history re-use:
<dSpData2D:SpM extrapolated using coords
  <sparsity:sparsity for geom step 12
    nrows_g=26 nrows=14 sparsity=16.7781 nnzs=11342, refcount: 9>
  <dData2D:(temp array for extrapolation) n=11342 m=1, refcount: 1>
refcount: 1>
Note: For starting DM, Qtot, Tr[D*S] =          8.00000000          7.91777416
No. of atoms with KB's overlaping orbs in proc 0. Max # of overlaps:      17     161

InitMesh: MESH = 36 x 36 x 36 = 46656
InitMesh: Mesh cutoff (required, used) =   300.000   353.289 Ry
New grid distribution [1]: sub = 2
New grid distribution [2]: sub = 2
New grid distribution [3]: sub = 2
Setting up quadratic distribution...

        iscf     Eharris(eV)        E_KS(eV)     FreeEng(eV)     dDmax    Ef(eV) dHmax(eV)
   scf:    1     -214.071523     -213.830143     -213.830143  0.037940 -4.026459  0.028704
   scf:    2     -213.830208     -213.830180     -213.830180  0.003799 -4.046907  0.005381
   scf:    3     -213.830183     -213.830182     -213.830182  0.000576 -4.043756  0.000170
   scf:    4     -213.830182     -213.830182     -213.830182  0.000007 -4.043787  0.000130

SCF Convergence by DM+H criterion
max |DM_out - DM_in|         :     0.0000067423
max |H_out - H_in|      (eV) :     0.0001295624
SCF cycle converged after 4 iterations

Using DM_out to compute the final energy and forces
No. of atoms with KB's overlaping orbs in proc 0. Max # of overlaps:      17     161

siesta: E_KS(eV) =             -213.8302

siesta: Atomic forces (eV/Ang):
----------------------------------------
   Tot   -0.000000   -0.000000    0.000000
----------------------------------------
   Max    0.000855
   Res    0.000855    sqrt( Sum f_i^2 / 3N )
----------------------------------------
   Max    0.000855    constrained

Stress tensor Voigt[x,y,z,yz,xz,xy] (kbar):        1.99        1.99        1.99       -0.03       -0.03       -0.03
(Free)E + p*V (eV/cell)     -213.8823
Target enthalpy (eV/cell)     -213.8302

siesta: Stress tensor (static) (eV/Ang**3):
         0.001242   -0.000018   -0.000018
        -0.000018    0.001242   -0.000018
        -0.000018   -0.000018    0.001242

siesta: Pressure (static):         -1.99009929  kBar

siesta: Stress tensor (total) (eV/Ang**3):
         0.001242   -0.000018   -0.000018
        -0.000018    0.001242   -0.000018
        -0.000018   -0.000018    0.001242

siesta: Pressure (total):         -1.99009929  kBar

outcoor: Relaxed atomic coordinates (fractional):           
    0.24999482    0.24999482    0.24999482   1       1  Si
    0.00000518    0.00000518    0.00000518   1       2  Si

outcell: Unit cell vectors (Ang):
       -0.000033    2.757497    2.757497
        2.757497   -0.000033    2.757497
        2.757497    2.757497   -0.000033

outcell: Cell vector modules (Ang)   :    3.899690    3.899690    3.899690
outcell: Cell angles (23,13,12) (deg):     60.0008     60.0008     60.0008
outcell: Cell volume (Ang**3)        :     41.9356

siesta: Program's energy decomposition (eV):
siesta: Ebs     =       -75.438282
siesta: Eions   =       444.480597
siesta: Ena     =       174.538858
siesta: Ekin    =        80.893193
siesta: Enl     =        35.387474
siesta: Eso     =         0.000000
siesta: Edftu   =         0.000000
siesta: DEna    =         4.124771
siesta: DUscf   =         0.288354
siesta: DUext   =         0.000000
siesta: Ex      =       -56.378108
siesta: Ec      =        -8.204127
siesta: Exc     =       -64.582234
siesta: EbV     =         0.000000
siesta: eta*DQ  =         0.000000
siesta: Emadel  =         0.000000
siesta: Emeta   =         0.000000
siesta: Emolmec =         0.000000
siesta: Ekinion =         0.000000
siesta: Eharris =      -213.830182
siesta: Etot    =      -213.830182
siesta: FreeEng =      -213.830182

siesta: Final energy (eV):
siesta:  Band Struct. =     -75.438282
siesta:       Kinetic =      80.893193
siesta:       Hartree =      15.180095
siesta:         Edftu =       0.000000
siesta:       Eso     =       0.000000
siesta:    Ext. field =       0.000000
siesta:         Exch. =     -56.378108
siesta:         Corr. =      -8.204127
siesta:     Bulk bias =       0.000000
siesta:   Exch.-corr. =     -64.582234
siesta:  Ion-electron =    -102.664197
siesta:       Ion-ion =    -142.657038
siesta:       Ekinion =       0.000000
siesta: D3 dispersion =       0.000000
siesta:         Total =    -213.830182
siesta:         Fermi =      -4.043787

siesta: Stress tensor (static) (eV/Ang**3):
siesta:     0.001242   -0.000018   -0.000018
siesta:    -0.000018    0.001242   -0.000018
siesta:    -0.000018   -0.000018    0.001242

siesta: Constrained stress tensor (static) (eV/Ang**3):
siesta:     0.001242   -0.000018   -0.000018
siesta:    -0.000018    0.001242   -0.000018
siesta:    -0.000018   -0.000018    0.001242

siesta: Cell volume =         41.935610 Ang**3

siesta: Pressure (static):
siesta:                Solid            Molecule  Units
siesta:          -0.00001353         -0.00001383  Ry/Bohr**3
siesta:          -0.00124212         -0.00127024  eV/Ang**3
siesta:          -1.99009929         -2.03514132  kBar
(Free)E+ p_basis*V_orbitals  =        -212.315227
(Free)Eharris+ p_basis*V_orbitals  =        -212.315227

cite: Please see "Si-diamond.bib" for an exhaustive BiBTeX file.
cite: Please clearly indicate Siesta version in published work: 5.0.1
cite: This calculation has made use of the following articles
cite: which are encouraged to be cited in a published work.
        Primary SIESTA paper
          DOI: www.doi.org/10.1088/0953-8984/14/11/302


>> End of run:   5-DEC-2024  17:26:02
Job completed
