Executable      : siesta
Version         : 5.0.1
Architecture    : x86_64
Compiler version: GNU-12.4.0
Compiler flags  : -march=nocona -mtune=haswell -ftree-vectorize -fPIC -fstack-protector-strong -fno-plt -O2 -ffunction-sections -pipe -isystem <prefix>/include -fdebug-prefix-map=<prefix>/work=/usr/local/src/conda/siesta-5.0.1 -fdebug-prefix-map=<prefix>=/usr/local/src/conda-prefix -I<prefix>/lib -fallow-argument-mismatch -O3
Parallelisations: MPI
NetCDF support
NetCDF-4 support
NetCDF-4 MPI-IO support
Lua support
Native ELPA support
DFT-D3 support

Runtime information:
* Directory : /home/carlos/documents/siesta-hands-on/siesta-complete-guide/Chapter-8/energy_cutoff/ec_50
* Running on 2 nodes in parallel.
>> Start of run:   5-DEC-2024  17:11:07

                           *********************** 
                           *  WELCOME TO SIESTA  * 
                           *********************** 

 NOTE: Siesta V5 introduces some new defaults for basis-set generation
 NOTE: which might lead to slightly different numerical results.
 NOTE: Please see the manual for full details and compatibility measures.


reinit: Reading from file calc.fdf

reinit: -----------------------------------------------------------------------
reinit: System Name: Si bulk diamond
reinit: -----------------------------------------------------------------------
reinit: System Label: Si-diamond
reinit: -----------------------------------------------------------------------

initatom: Reading input for the pseudopotentials and atomic orbitals ----------
Species number:   1 Atomic number:   14 Label: Si

Ground state valence configuration (from tables):   3s02  3p02  3d00  4f00

---- Processing specs for species: Si
Reading pseudopotential information in unformatted form from:
  Si.vps

---- Pseudopotential check for Si

Pseudized shells:
3s( 2.00) rc: 1.23
3p( 2.00) rc: 1.43
Valence configuration for ps generation: (assumed as above)
For Si, standard SIESTA heuristics set lmxkb to 3
 (one more than the basis l, including polarization orbitals).
Use PS.lmax or PS.KBprojectors blocks to override.
Si pseudopotential only contains V_ls up to l=1 -- lmxkb reset.

<basis_specs>
===============================================================================
Si                   Z=  14    Mass=  28.090        Charge= 0.17977+309
Lmxo=2 Lmxkb= 1    BasisType=split      Semic=F
L=0  Nsemic=0  Cnfigmx=3
          i=1  nzeta=2  polorb=0  (3s)
            splnorm:   0.15000    
               vcte:    40.000    
               rinn:  -0.90000    
               qcoe:    0.0000    
               qyuk:    0.0000    
               qwid:   0.10000E-01
                rcs:    0.0000      0.0000    
            lambdas:    1.0000      1.0000    
L=1  Nsemic=0  Cnfigmx=3
          i=1  nzeta=2  polorb=1  (3p)  (to be polarized perturbatively)
            splnorm:   0.15000    
               vcte:    40.000    
               rinn:  -0.90000    
               qcoe:    0.0000    
               qyuk:    0.0000    
               qwid:   0.10000E-01
                rcs:    0.0000      0.0000    
            lambdas:    1.0000      1.0000    
L=2  Nsemic=0  Cnfigmx=3
          i=1  nzeta=0  polorb=0  (3d)  (perturbative polarization orbital) (from 3p)
-------------------------------------------------------------------------------
L=0  Nkbl=1  erefs: 0.17977+309
L=1  Nkbl=1  erefs: 0.17977+309
===============================================================================
</basis_specs>

Using PAO.SplitTailNorm
atom: Called for Si                    (Z =  14)
NOTE: Si pseudopotential has channels up to l= 1
NOTE: PAOs with higher l will be generated with V_local
Maximum radius (at nrval) set to   50.00000 8518

read_vps: Pseudopotential generation method:
read_vps: ATM4.2.7  Kerker                                  
Valence charge in pseudo generation:    4.00000

xc_check: Exchange-correlation functional:
xc_check: GGA Perdew, Burke & Ernzerhof 1996
V l=0 = -2*Zval/r beyond r=  2.8074
V l=1 = -2*Zval/r beyond r=  2.8074
All V_l potentials equal beyond r=  1.5163
This should be close to max(r_c) in ps generation
All pots = -2*Zval/r beyond r=  2.8074
Using large-core scheme (fit) for Vlocal

atom: Estimated core radius    2.80744

atom: Including non-local core corrections could be a good idea
Fit of Vlocal with continuous 2nd derivative
Fitting vlocal at       1.5209
Choosing vlocal chloc cutoff:  5726  3.054333
qtot up to nchloc:    3.99984030
atom: Maximum radius for chlocal:    3.05433
atom: Maximum radius for r*vlocal+2*Zval:    3.05433

KBgen: Kleinman-Bylander projectors: 
GHOST: No ghost state for L =  0
   l= 0   rc=  1.511703   el= -0.791527   Ekb=  6.361810   kbcos=  0.278083
GHOST: No ghost state for L =  1
   l= 1   rc=  1.575389   el= -0.300579   Ekb=  2.611741   kbcos=  0.260518

KBgen: Total number of Kleinman-Bylander projectors:   4
atom: -------------------------------------------------------------------------

atom: SANKEY-TYPE ORBITALS:
atom: Selected multiple-zeta basis: split     

SPLIT: Orbitals with angular momentum L= 0

SPLIT: Basis orbitals for state 3s

SPLIT: PAO cut-off radius determined from an
SPLIT: energy shift=  0.010000 Ry
Split based on tail norm

   izeta = 1
                 lambda =    1.000000
                     rc =    5.403143
                 energy =   -0.779945
                kinetic =    0.563858
    potential(screened) =   -1.343803
       potential(ionic) =   -3.794934

   izeta = 2
                 rmatch =    3.854490
              splitnorm =    0.150000
                 energy =   -0.529540
                kinetic =    1.167421
    potential(screened) =   -1.696961
       potential(ionic) =   -4.291182

SPLIT: Orbitals with angular momentum L= 1

SPLIT: Basis orbitals for state 3p

SPLIT: PAO cut-off radius determined from an
SPLIT: energy shift=  0.010000 Ry
Split based on tail norm

   izeta = 1
                 lambda =    1.000000
                     rc =    6.843982
                 energy =   -0.289102
                kinetic =    0.857285
    potential(screened) =   -1.146387
       potential(ionic) =   -3.385088

   izeta = 2
                 rmatch =    4.952104
              splitnorm =    0.150000
                 energy =   -0.182759
                kinetic =    1.296336
    potential(screened) =   -1.479095
       potential(ionic) =   -3.923275
*Note: V_local used for l= 2

** Using vlocal for PAOs with L= 2

POLgen: Perturbative polarization orbital with L=  2

POLgen: Polarization orbital for state 3p
*Note: V_local used for lpol= 2

** Using vlocal for PAOs with L= 2
Split based on tail norm

   izeta = 1
                     rc =    6.843982
                 energy =    0.369369
                kinetic =    1.362956
    potential(screened) =   -0.993588
       potential(ionic) =   -3.078590
atom: Total number of Sankey-type orbitals: 13

atm_pop: Valence configuration (for local Pseudopot. screening):
 3s( 2.00)                                                            
 3p( 2.00)                                                            
 3d( 0.00)                                                            
Vna: chval, zval:    4.00000   4.00000

Vna:  Cut-off radius for the neutral-atom potential:   6.843982

atom: _________________________________________________________________________

prinput: Basis input 

PAO.BasisType split     

%block ChemicalSpeciesLabel
    1   14 Si                      # Species index, atomic number, species label
%endblock ChemicalSpeciesLabel

%block PAO.Basis                 # Define Basis set
# WARNING: This information might be incomplete!
Si                    2                    # Species label, number of l-shells
 n=3   0   2                         # n, l, Nzeta 
   5.403      3.854   
   1.000      1.000   
 n=3   1   2 P   1                   # n, l, Nzeta, Polarization, NzetaPol
   6.844      4.952   
   1.000      1.000   
%endblock PAO.Basis

prinput: ----------------------------------------------------------------------

Dumping basis to NetCDF file Si.ion.nc
coor:   Atomic-coordinates input format  =     Fractional

siesta: Atomic coordinates (Bohr) and species
siesta:      3.30702   3.30702   3.30702  1        1
siesta:      0.00000   0.00000   0.00000  1        2

siesta: System type = bulk      

initatomlists: Number of atoms, orbitals, and projectors:      2    26     8

siesta: ******************** Simulation parameters ****************************
siesta:
siesta: The following are some of the parameters of the simulation.
siesta: A complete list of the parameters used, including default values,
siesta: can be found in file out.fdf
siesta:
redata: Spin configuration                          = none
redata: Number of spin components                   = 1
redata: Time-Reversal Symmetry                      = T
redata: Spin spiral                                 = F
redata: Long output                                 =   F
redata: Number of Atomic Species                    =        1
redata: Charge density info will appear in .RHO file
redata: Write Mulliken Pop.                         = NO
redata: Matel table size (NRTAB)                    =     1024
redata: Mesh Cutoff                                 =    50.0000 Ry
redata: Net charge of the system                    =     0.0000 |e|
redata: Min. number of SCF Iter                     =        0
redata: Max. number of SCF Iter                     =      300
redata: SCF convergence failure will abort job
redata: SCF mix quantity                            = Hamiltonian
redata: Mix DM or H after convergence               =   F
redata: Recompute H after scf cycle                 =   F
redata: Mix DM in first SCF step                    =   T
redata: Write Pulay info on disk                    =   F
redata: New DM Occupancy tolerance                  = 0.000000000001
redata: No kicks to SCF
redata: DM Mixing Weight for Kicks                  =     0.5000
redata: Require Harris convergence for SCF          =   F
redata: Harris energy tolerance for SCF             =     0.000100 eV
redata: Require DM convergence for SCF              =   T
redata: DM tolerance for SCF                        =     0.000100
redata: Require EDM convergence for SCF             =   F
redata: EDM tolerance for SCF                       =     0.001000 eV
redata: Require H convergence for SCF               =   T
redata: Hamiltonian tolerance for SCF               =     0.001000 eV
redata: Require (free) Energy convergence for SCF   =   F
redata: (free) Energy tolerance for SCF             =     0.000100 eV
redata: Using DFT-D3 dispersion                     =   F
redata: Using Saved Data (generic)                  =   F
redata: Use continuation files for DM               =   T
redata: Neglect nonoverlap interactions             =   F
redata: Method of Calculation                       = Diagonalization
redata: Electronic Temperature                      =   299.9863 K
redata: Fix the spin of the system                  =   F
redata: Max. number of TDED Iter                    =        1
redata: Number of TDED substeps                     =        3
redata: Dynamics option                             = CG coord. optimization
redata: Variable cell                               =   T
redata: Use continuation files for CG               =   F
redata: Max atomic displ per move                   =     0.1058 Ang
redata: Maximum number of optimization moves        =       30
redata: Force tolerance                             =     0.0010 eV/Ang
redata: Stress tolerance                            =     1.0000 GPa
mix.SCF: Pulay mixing                            = Pulay
mix.SCF:    Variant                              = stable
mix.SCF:    History steps                        = 2
mix.SCF:    Linear mixing weight                 =     0.250000
mix.SCF:    Mixing weight                        =     0.250000
mix.SCF:    SVD condition                        = 0.1000E-07
redata: Save all siesta data in one NC              =   F
redata: ***********************************************************************

%block SCF.Mixers
  Pulay
%endblock SCF.Mixers

%block SCF.Mixer.Pulay
  # Mixing method
  method pulay
  variant stable

  # Mixing options
  weight 0.2500
  weight.linear 0.2500
  history 2
%endblock SCF.Mixer.Pulay

DM_history_depth set to one: no extrapolation allowed by default for geometry relaxation
Size of DM history Fstack: 1
Total number of electrons:     8.000000
Total ionic charge:     8.000000

* ProcessorY, Blocksize:    2  14


* Orbital distribution balance (max,min):    14    12

k-point displ. along   1 input, could be:     0.00    0.50
k-point displ. along   2 input, could be:     0.00    0.50
k-point displ. along   3 input, could be:     0.00    0.50
 Kpoints in:          144 . Kpoints trimmed:          132

siesta: k-grid: Number of k-points = 132
siesta: k-points from Monkhorst-Pack grid
siesta: k-cutoff (effective) =    14.849 Ang
siesta: k-point supercell and displacements
siesta: k-grid:     6     0     0      0.000
siesta: k-grid:     0     6     0      0.000
siesta: k-grid:     0     0     6      0.000

diag: Algorithm                                     = D&C
diag: Parallel over k                               =   F
diag: Use parallel 2D distribution                  =   F
diag: Parallel block-size                           = 14
diag: Parallel distribution                         =     1 x     2
diag: Used triangular part                          = Lower
diag: Absolute tolerance                            =  0.100E-15
diag: Orthogonalization factor                      =  0.100E-05
diag: Memory factor                                 =  1.0000

superc: Internal auxiliary supercell:     3 x     3 x     3  =      27
superc: Number of atoms, orbitals, and projectors:     54    702    216


ts: **************************************************************
ts: Save H and S matrices                           =    F
ts: Save DM and EDM matrices                        =    F
ts: Only save the overlap matrix S                  =    F
ts: **************************************************************

************************ Begin: TS CHECKS AND WARNINGS ************************
************************ End: TS CHECKS AND WARNINGS **************************


                     ====================================
                        Begin CG opt. move =      0
                     ====================================

superc: Internal auxiliary supercell:     3 x     3 x     3  =      27
superc: Number of atoms, orbitals, and projectors:     54    702    216

outcell: Unit cell vectors (Ang):
        0.000000    3.500000    3.500000
        3.500000    0.000000    3.500000
        3.500000    3.500000    0.000000

outcell: Cell vector modules (Ang)   :    4.949747    4.949747    4.949747
outcell: Cell angles (23,13,12) (deg):     60.0000     60.0000     60.0000
outcell: Cell volume (Ang**3)        :     85.7500
<dSpData1D:S at geom step 0
  <sparsity:sparsity for geom step 0
    nrows_g=26 nrows=14 sparsity=7.3817 nnzs=4990, refcount: 7>
  <dData1D:(new from dSpData1D) n=4990, refcount: 1>
refcount: 1>
new_DM -- step:     1
Initializing Density Matrix...

Attempting to read DM from file... Failed...
DM filled with atomic data:
<dSpData2D:DM initialized from atoms
  <sparsity:sparsity for geom step 0
    nrows_g=26 nrows=14 sparsity=7.3817 nnzs=4990, refcount: 8>
  <dData2D:DM n=4990 m=1, refcount: 1>
refcount: 1>
No. of atoms with KB's overlaping orbs in proc 0. Max # of overlaps:       8      61

InitMesh: MESH = 18 x 18 x 18 = 5832
InitMesh: Mesh cutoff (required, used) =    50.000    54.824 Ry
New grid distribution [1]: sub = 2
New grid distribution [2]: sub = 2
New grid distribution [3]: sub = 2
Setting up quadratic distribution...

stepf: Fermi-Dirac step function

siesta: Program's energy decomposition (eV):
siesta: Ebs     =       -64.989172
siesta: Eions   =       444.480597
siesta: Ena     =       181.138495
siesta: Ekin    =        66.946274
siesta: Enl     =        33.638668
siesta: Eso     =         0.000000
siesta: Edftu   =         0.000000
siesta: DEna    =         8.742587
siesta: DUscf   =         0.286849
siesta: DUext   =         0.000000
siesta: Ex      =       -49.862565
siesta: Ec      =        -7.009383
siesta: Exc     =       -56.871948
siesta: EbV     =         0.000000
siesta: eta*DQ  =         0.000000
siesta: Emadel  =         0.000000
siesta: Emeta   =         0.000000
siesta: Emolmec =         0.000000
siesta: Ekinion =         0.000000
siesta: Eharris =      -215.656852
siesta: Etot    =      -210.599672
siesta: FreeEng =      -210.603807

        iscf     Eharris(eV)        E_KS(eV)     FreeEng(eV)     dDmax    Ef(eV) dHmax(eV)
   scf:    1     -215.656852     -210.599672     -210.603807  0.714828 -4.349478  0.502988
timer: Routine,Calls,Time,% = IterSCF        1       0.213  26.94
   scf:    2     -210.611436     -210.605653     -210.609759  0.010131 -4.430151  0.342515
   scf:    3     -210.616010     -210.611287     -210.615241  0.021305 -4.603480  0.007358
   scf:    4     -210.611301     -210.611294     -210.615246  0.000298 -4.603098  0.004240
   scf:    5     -210.611306     -210.611300     -210.615250  0.000350 -4.602385  0.002844
   scf:    6     -210.611304     -210.611302     -210.615250  0.000206 -4.601663  0.001655
   scf:    7     -210.611304     -210.611303     -210.615250  0.000143 -4.600826  0.001039
   scf:    8     -210.611303     -210.611303     -210.615250  0.000025 -4.600332  0.000833

SCF Convergence by DM+H criterion
max |DM_out - DM_in|         :     0.0000252775
max |H_out - H_in|      (eV) :     0.0008329155
SCF cycle converged after 8 iterations

Using DM_out to compute the final energy and forces
No. of atoms with KB's overlaping orbs in proc 0. Max # of overlaps:       8      61

siesta: E_KS(eV) =             -210.6113

siesta: E_KS - E_eggbox =      -210.6113

siesta: Atomic forces (eV/Ang):
----------------------------------------
   Tot    0.000120    0.000120    0.000120
----------------------------------------
   Max    0.000187
   Res    0.000140    sqrt( Sum f_i^2 / 3N )
----------------------------------------
   Max    0.000187    constrained

Stress tensor Voigt[x,y,z,yz,xz,xy] (kbar):      115.48      115.48      115.48       -0.03       -0.03       -0.03
(Free)E + p*V (eV/cell)     -216.7958
Target enthalpy (eV/cell)     -210.6153

siesta: Stress tensor (static) (eV/Ang**3):
         0.072076   -0.000017   -0.000017
        -0.000017    0.072076   -0.000017
        -0.000017   -0.000017    0.072076

siesta: Pressure (static):       -115.47843844  kBar

siesta: Stress tensor (total) (eV/Ang**3):
         0.072076   -0.000017   -0.000017
        -0.000017    0.072076   -0.000017
        -0.000017   -0.000017    0.072076

siesta: Pressure (total):       -115.47843844  kBar

cgvc: No target stress found, assuming hydrostatic MD.TargetPressure.

cgvc: Target stress (kBar)
cgvc:        -0.000       0.000       0.000
cgvc:         0.000      -0.000       0.000
cgvc:         0.000       0.000      -0.000

                     ====================================
                        Begin CG opt. move =      1
                     ====================================
k-point displ. along   1 input, could be:     0.00    0.50
k-point displ. along   2 input, could be:     0.00    0.50
k-point displ. along   3 input, could be:     0.00    0.50
 Kpoints in:          144 . Kpoints trimmed:          132

siesta: k-grid: Number of k-points = 132
siesta: k-points from Monkhorst-Pack grid
siesta: k-cutoff (effective) =    14.668 Ang
siesta: k-point supercell and displacements
siesta: k-grid:     6     0     0      0.000
siesta: k-grid:     0     6     0      0.000
siesta: k-grid:     0     0     6      0.000

superc: Internal auxiliary supercell:     3 x     3 x     3  =      27
superc: Number of atoms, orbitals, and projectors:     54    702    216

outcell: Unit cell vectors (Ang):
        0.000021    3.457237    3.457237
        3.457237    0.000021    3.457237
        3.457237    3.457237    0.000021

outcell: Cell vector modules (Ang)   :    4.889272    4.889272    4.889272
outcell: Cell angles (23,13,12) (deg):     59.9996     59.9996     59.9996
outcell: Cell volume (Ang**3)        :     82.6445
<dSpData1D:S at geom step 1
  <sparsity:sparsity for geom step 1
    nrows_g=26 nrows=14 sparsity=7.4349 nnzs=5026, refcount: 7>
  <dData1D:(new from dSpData1D) n=5026, refcount: 1>
refcount: 1>
new_DM -- step:     2
Re-using DM from previous geometries...
Number of DMs in history: 1
 DM extrapolation coefficients: 
1   1.00000
New DM after history re-use:
<dSpData2D:SpM extrapolated using coords
  <sparsity:sparsity for geom step 1
    nrows_g=26 nrows=14 sparsity=7.4349 nnzs=5026, refcount: 9>
  <dData2D:(temp array for extrapolation) n=5026 m=1, refcount: 1>
refcount: 1>
Note: For starting DM, Qtot, Tr[D*S] =          8.00000000          8.07824819
No. of atoms with KB's overlaping orbs in proc 0. Max # of overlaps:       8      61

InitMesh: MESH = 18 x 18 x 18 = 5832
InitMesh: Mesh cutoff (required, used) =    50.000    56.188 Ry
New grid distribution [1]: sub = 2
New grid distribution [2]: sub = 2
New grid distribution [3]: sub = 2
Setting up quadratic distribution...

        iscf     Eharris(eV)        E_KS(eV)     FreeEng(eV)     dDmax    Ef(eV) dHmax(eV)
   scf:    1     -210.791089     -210.840141     -210.843137  0.025514 -4.612270  0.027051
   scf:    2     -210.840109     -210.840128     -210.843154  0.001401 -4.592028  0.005550
   scf:    3     -210.840139     -210.840133     -210.843155  0.000239 -4.594994  0.000208
   scf:    4     -210.840133     -210.840133     -210.843155  0.000015 -4.594960  0.000132

SCF Convergence by DM+H criterion
max |DM_out - DM_in|         :     0.0000150266
max |H_out - H_in|      (eV) :     0.0001320871
SCF cycle converged after 4 iterations

Using DM_out to compute the final energy and forces
No. of atoms with KB's overlaping orbs in proc 0. Max # of overlaps:       8      61

siesta: E_KS(eV) =             -210.8401

siesta: Atomic forces (eV/Ang):
----------------------------------------
   Tot   -0.000026   -0.000026   -0.000026
----------------------------------------
   Max    0.000262
   Res    0.000250    sqrt( Sum f_i^2 / 3N )
----------------------------------------
   Max    0.000262    constrained

Stress tensor Voigt[x,y,z,yz,xz,xy] (kbar):      119.66      119.66      119.66       -0.02       -0.02       -0.02
(Free)E + p*V (eV/cell)     -217.0157
Target enthalpy (eV/cell)     -210.8432

siesta: Stress tensor (static) (eV/Ang**3):
         0.074688   -0.000016   -0.000016
        -0.000016    0.074688   -0.000016
        -0.000016   -0.000016    0.074688

siesta: Pressure (static):       -119.66314120  kBar

siesta: Stress tensor (total) (eV/Ang**3):
         0.074688   -0.000016   -0.000016
        -0.000016    0.074688   -0.000016
        -0.000016   -0.000016    0.074688

siesta: Pressure (total):       -119.66314120  kBar

                     ====================================
                        Begin CG opt. move =      2
                     ====================================
k-point displ. along   1 input, could be:     0.00    0.50
k-point displ. along   2 input, could be:     0.00    0.50
k-point displ. along   3 input, could be:     0.00    0.50
 Kpoints in:          144 . Kpoints trimmed:          132

siesta: k-grid: Number of k-points = 132
siesta: k-points from Monkhorst-Pack grid
siesta: k-cutoff (effective) =    14.377 Ang
siesta: k-point supercell and displacements
siesta: k-grid:     6     0     0      0.000
siesta: k-grid:     0     6     0      0.000
siesta: k-grid:     0     0     6      0.000

superc: Internal auxiliary supercell:     3 x     3 x     3  =      27
superc: Number of atoms, orbitals, and projectors:     54    702    216

outcell: Unit cell vectors (Ang):
        0.000053    3.388817    3.388817
        3.388817    0.000053    3.388817
        3.388817    3.388817    0.000053

outcell: Cell vector modules (Ang)   :    4.792511    4.792511    4.792511
outcell: Cell angles (23,13,12) (deg):     59.9990     59.9990     59.9990
outcell: Cell volume (Ang**3)        :     77.8331
<dSpData1D:S at geom step 2
  <sparsity:sparsity for geom step 2
    nrows_g=26 nrows=14 sparsity=7.7544 nnzs=5242, refcount: 7>
  <dData1D:(new from dSpData1D) n=5242, refcount: 1>
refcount: 1>
new_DM -- step:     3
Re-using DM from previous geometries...
Number of DMs in history: 1
 DM extrapolation coefficients: 
1   1.00000
New DM after history re-use:
<dSpData2D:SpM extrapolated using coords
  <sparsity:sparsity for geom step 2
    nrows_g=26 nrows=14 sparsity=7.7544 nnzs=5242, refcount: 9>
  <dData2D:(temp array for extrapolation) n=5242 m=1, refcount: 1>
refcount: 1>
Note: For starting DM, Qtot, Tr[D*S] =          8.00000000          8.12776311
No. of atoms with KB's overlaping orbs in proc 0. Max # of overlaps:       8      61

InitMesh: MESH = 18 x 18 x 18 = 5832
InitMesh: Mesh cutoff (required, used) =    50.000    58.480 Ry
New grid distribution [1]: sub = 2
New grid distribution [2]: sub = 2
New grid distribution [3]: sub = 2
Setting up quadratic distribution...

        iscf     Eharris(eV)        E_KS(eV)     FreeEng(eV)     dDmax    Ef(eV) dHmax(eV)
   scf:    1     -211.115225     -211.209933     -211.211665  0.038938 -4.614553  0.045722
   scf:    2     -211.209965     -211.209957     -211.211711  0.002396 -4.581377  0.011396
   scf:    3     -211.209971     -211.209964     -211.211715  0.000449 -4.586297  0.000760
   scf:    4     -211.209965     -211.209964     -211.211716  0.000034 -4.586240  0.000318

SCF Convergence by DM+H criterion
max |DM_out - DM_in|         :     0.0000336401
max |H_out - H_in|      (eV) :     0.0003177734
SCF cycle converged after 4 iterations

Using DM_out to compute the final energy and forces
No. of atoms with KB's overlaping orbs in proc 0. Max # of overlaps:       8      61

siesta: E_KS(eV) =             -211.2100

siesta: Atomic forces (eV/Ang):
----------------------------------------
   Tot   -0.000271   -0.000271   -0.000271
----------------------------------------
   Max    0.000531
   Res    0.000418    sqrt( Sum f_i^2 / 3N )
----------------------------------------
   Max    0.000531    constrained

Stress tensor Voigt[x,y,z,yz,xz,xy] (kbar):      125.72      125.72      125.72       -0.02       -0.02       -0.02
(Free)E + p*V (eV/cell)     -217.3193
Target enthalpy (eV/cell)     -211.2117

siesta: Stress tensor (static) (eV/Ang**3):
         0.078471   -0.000012   -0.000012
        -0.000012    0.078471   -0.000012
        -0.000012   -0.000012    0.078471

siesta: Pressure (static):       -125.72384493  kBar

siesta: Stress tensor (total) (eV/Ang**3):
         0.078471   -0.000012   -0.000012
        -0.000012    0.078471   -0.000012
        -0.000012   -0.000012    0.078471

siesta: Pressure (total):       -125.72384493  kBar

                     ====================================
                        Begin CG opt. move =      3
                     ====================================
k-point displ. along   1 input, could be:     0.00    0.50
k-point displ. along   2 input, could be:     0.00    0.50
k-point displ. along   3 input, could be:     0.00    0.50
 Kpoints in:          144 . Kpoints trimmed:          132

siesta: k-grid: Number of k-points = 132
siesta: k-points from Monkhorst-Pack grid
siesta: k-cutoff (effective) =    14.063 Ang
siesta: k-point supercell and displacements
siesta: k-grid:     6     0     0      0.000
siesta: k-grid:     0     6     0      0.000
siesta: k-grid:     0     0     6      0.000

superc: Internal auxiliary supercell:     5 x     5 x     5  =     125
superc: Number of atoms, orbitals, and projectors:    250   3250   1000

outcell: Unit cell vectors (Ang):
        0.000089    3.314750    3.314750
        3.314750    0.000089    3.314750
        3.314750    3.314750    0.000089

outcell: Cell vector modules (Ang)   :    4.687765    4.687765    4.687765
outcell: Cell angles (23,13,12) (deg):     59.9982     59.9982     59.9982
outcell: Cell volume (Ang**3)        :     72.8392
<dSpData1D:S at geom step 3
  <sparsity:sparsity for geom step 3
    nrows_g=26 nrows=14 sparsity=9.0148 nnzs=6094, refcount: 7>
  <dData1D:(new from dSpData1D) n=6094, refcount: 1>
refcount: 1>
new_DM -- step:     4
Re-using DM from previous geometries...
Number of DMs in history: 1
 DM extrapolation coefficients: 
1   1.00000
New DM after history re-use:
<dSpData2D:SpM extrapolated using coords
  <sparsity:sparsity for geom step 3
    nrows_g=26 nrows=14 sparsity=9.0148 nnzs=6094, refcount: 9>
  <dData2D:(temp array for extrapolation) n=6094 m=1, refcount: 1>
refcount: 1>
Note: For starting DM, Qtot, Tr[D*S] =          8.00000000          8.14204060
No. of atoms with KB's overlaping orbs in proc 0. Max # of overlaps:       8      65

InitMesh: MESH = 18 x 18 x 18 = 5832
InitMesh: Mesh cutoff (required, used) =    50.000    61.122 Ry
New grid distribution [1]: sub = 2
New grid distribution [2]: sub = 2
New grid distribution [3]: sub = 2
Setting up quadratic distribution...

        iscf     Eharris(eV)        E_KS(eV)     FreeEng(eV)     dDmax    Ef(eV) dHmax(eV)
   scf:    1     -211.483211     -211.612254     -211.613118  0.045989 -4.548609  0.052172
   scf:    2     -211.612357     -211.612317     -211.613178  0.002733 -4.512591  0.013811
   scf:    3     -211.612327     -211.612323     -211.613184  0.000518 -4.517865  0.001339
   scf:    4     -211.612323     -211.612323     -211.613184  0.000047 -4.517795  0.000513

SCF Convergence by DM+H criterion
max |DM_out - DM_in|         :     0.0000469773
max |H_out - H_in|      (eV) :     0.0005131721
SCF cycle converged after 4 iterations

Using DM_out to compute the final energy and forces
No. of atoms with KB's overlaping orbs in proc 0. Max # of overlaps:       8      65

siesta: E_KS(eV) =             -211.6123

siesta: Atomic forces (eV/Ang):
----------------------------------------
   Tot   -0.000541   -0.000541   -0.000541
----------------------------------------
   Max    0.000673
   Res    0.000485    sqrt( Sum f_i^2 / 3N )
----------------------------------------
   Max    0.000673    constrained

Stress tensor Voigt[x,y,z,yz,xz,xy] (kbar):      131.69      131.69      131.69       -0.01       -0.01       -0.01
(Free)E + p*V (eV/cell)     -217.6001
Target enthalpy (eV/cell)     -211.6132

siesta: Stress tensor (static) (eV/Ang**3):
         0.082194   -0.000005   -0.000005
        -0.000005    0.082194   -0.000005
        -0.000005   -0.000005    0.082194

siesta: Pressure (static):       -131.68978396  kBar

siesta: Stress tensor (total) (eV/Ang**3):
         0.082194   -0.000005   -0.000005
        -0.000005    0.082194   -0.000005
        -0.000005   -0.000005    0.082194

siesta: Pressure (total):       -131.68978396  kBar

                     ====================================
                        Begin CG opt. move =      4
                     ====================================
k-point displ. along   1 input, could be:     0.00    0.50
k-point displ. along   2 input, could be:     0.00    0.50
k-point displ. along   3 input, could be:     0.00    0.50
 Kpoints in:          144 . Kpoints trimmed:          132

siesta: k-grid: Number of k-points = 132
siesta: k-points from Monkhorst-Pack grid
siesta: k-cutoff (effective) =    13.749 Ang
siesta: k-point supercell and displacements
siesta: k-grid:     6     0     0      0.000
siesta: k-grid:     0     6     0      0.000
siesta: k-grid:     0     0     6      0.000

superc: Internal auxiliary supercell:     5 x     5 x     5  =     125
superc: Number of atoms, orbitals, and projectors:    250   3250   1000

outcell: Unit cell vectors (Ang):
        0.000124    3.240683    3.240683
        3.240683    0.000124    3.240683
        3.240683    3.240683    0.000124

outcell: Cell vector modules (Ang)   :    4.583018    4.583018    4.583018
outcell: Cell angles (23,13,12) (deg):     59.9975     59.9975     59.9975
outcell: Cell volume (Ang**3)        :     68.0636
<dSpData1D:S at geom step 4
  <sparsity:sparsity for geom step 4
    nrows_g=26 nrows=14 sparsity=9.1746 nnzs=6202, refcount: 7>
  <dData1D:(new from dSpData1D) n=6202, refcount: 1>
refcount: 1>
new_DM -- step:     5
Re-using DM from previous geometries...
Number of DMs in history: 1
 DM extrapolation coefficients: 
1   1.00000
New DM after history re-use:
<dSpData2D:SpM extrapolated using coords
  <sparsity:sparsity for geom step 4
    nrows_g=26 nrows=14 sparsity=9.1746 nnzs=6202, refcount: 9>
  <dData2D:(temp array for extrapolation) n=6202 m=1, refcount: 1>
refcount: 1>
Note: For starting DM, Qtot, Tr[D*S] =          8.00000000          8.14614655
No. of atoms with KB's overlaping orbs in proc 0. Max # of overlaps:       8      65

InitMesh: MESH = 16 x 16 x 16 = 4096
InitMesh: Mesh cutoff (required, used) =    50.000    50.526 Ry
New grid distribution [1]: sub = 2
New grid distribution [2]: sub = 2
New grid distribution [3]: sub = 2
Setting up quadratic distribution...

        iscf     Eharris(eV)        E_KS(eV)     FreeEng(eV)     dDmax    Ef(eV) dHmax(eV)
   scf:    1     -211.851750     -212.011117     -212.012058  0.068054 -4.464470  0.062148
   scf:    2     -212.011189     -212.011177     -212.012141  0.003317 -4.420054  0.020581
   scf:    3     -212.011216     -212.011200     -212.012160  0.000713 -4.427139  0.003220
   scf:    4     -212.011201     -212.011201     -212.012160  0.000064 -4.427037  0.001459
   scf:    5     -212.011201     -212.011201     -212.012161  0.000037 -4.426835  0.000494

SCF Convergence by DM+H criterion
max |DM_out - DM_in|         :     0.0000366400
max |H_out - H_in|      (eV) :     0.0004936654
SCF cycle converged after 5 iterations

Using DM_out to compute the final energy and forces
No. of atoms with KB's overlaping orbs in proc 0. Max # of overlaps:       8      65

siesta: E_KS(eV) =             -212.0112

siesta: Atomic forces (eV/Ang):
----------------------------------------
   Tot    0.000022    0.000022    0.000022
----------------------------------------
   Max    0.000307
   Res    0.000296    sqrt( Sum f_i^2 / 3N )
----------------------------------------
   Max    0.000307    constrained

Stress tensor Voigt[x,y,z,yz,xz,xy] (kbar):      135.72      135.72      135.72       -0.06       -0.06       -0.06
(Free)E + p*V (eV/cell)     -217.7777
Target enthalpy (eV/cell)     -212.0122

siesta: Stress tensor (static) (eV/Ang**3):
         0.084708   -0.000037   -0.000037
        -0.000037    0.084708   -0.000037
        -0.000037   -0.000037    0.084708

siesta: Pressure (static):       -135.71701297  kBar

siesta: Stress tensor (total) (eV/Ang**3):
         0.084708   -0.000037   -0.000037
        -0.000037    0.084708   -0.000037
        -0.000037   -0.000037    0.084708

siesta: Pressure (total):       -135.71701297  kBar

                     ====================================
                        Begin CG opt. move =      5
                     ====================================
k-point displ. along   1 input, could be:     0.00    0.50
k-point displ. along   2 input, could be:     0.00    0.50
k-point displ. along   3 input, could be:     0.00    0.50
 Kpoints in:          144 . Kpoints trimmed:          132

siesta: k-grid: Number of k-points = 132
siesta: k-points from Monkhorst-Pack grid
siesta: k-cutoff (effective) =    13.434 Ang
siesta: k-point supercell and displacements
siesta: k-grid:     6     0     0      0.000
siesta: k-grid:     0     6     0      0.000
siesta: k-grid:     0     0     6      0.000

superc: Internal auxiliary supercell:     5 x     5 x     5  =     125
superc: Number of atoms, orbitals, and projectors:    250   3250   1000

outcell: Unit cell vectors (Ang):
        0.000160    3.166616    3.166616
        3.166616    0.000160    3.166616
        3.166616    3.166616    0.000160

outcell: Cell vector modules (Ang)   :    4.478272    4.478272    4.478272
outcell: Cell angles (23,13,12) (deg):     59.9967     59.9967     59.9967
outcell: Cell volume (Ang**3)        :     63.5014
<dSpData1D:S at geom step 5
  <sparsity:sparsity for geom step 5
    nrows_g=26 nrows=14 sparsity=9.3876 nnzs=6346, refcount: 7>
  <dData1D:(new from dSpData1D) n=6346, refcount: 1>
refcount: 1>
new_DM -- step:     6
Re-using DM from previous geometries...
Number of DMs in history: 1
 DM extrapolation coefficients: 
1   1.00000
New DM after history re-use:
<dSpData2D:SpM extrapolated using coords
  <sparsity:sparsity for geom step 5
    nrows_g=26 nrows=14 sparsity=9.3876 nnzs=6346, refcount: 9>
  <dData2D:(temp array for extrapolation) n=6346 m=1, refcount: 1>
refcount: 1>
Note: For starting DM, Qtot, Tr[D*S] =          8.00000000          8.15046743
No. of atoms with KB's overlaping orbs in proc 0. Max # of overlaps:       8      65

InitMesh: MESH = 16 x 16 x 16 = 4096
InitMesh: Mesh cutoff (required, used) =    50.000    52.916 Ry
New grid distribution [1]: sub = 2
New grid distribution [2]: sub = 2
New grid distribution [3]: sub = 2
Setting up quadratic distribution...

        iscf     Eharris(eV)        E_KS(eV)     FreeEng(eV)     dDmax    Ef(eV) dHmax(eV)
   scf:    1     -212.214034     -212.401261     -212.401728  0.059165 -4.441081  0.053450
   scf:    2     -212.401401     -212.401341     -212.401810  0.002387 -4.396071  0.009039
   scf:    3     -212.401347     -212.401344     -212.401813  0.000368 -4.402371  0.000296
   scf:    4     -212.401344     -212.401344     -212.401813  0.000030 -4.402317  0.000221

SCF Convergence by DM+H criterion
max |DM_out - DM_in|         :     0.0000295826
max |H_out - H_in|      (eV) :     0.0002213691
SCF cycle converged after 4 iterations

Using DM_out to compute the final energy and forces
No. of atoms with KB's overlaping orbs in proc 0. Max # of overlaps:       8      65

siesta: E_KS(eV) =             -212.4013

siesta: Atomic forces (eV/Ang):
----------------------------------------
   Tot    0.000102    0.000102    0.000102
----------------------------------------
   Max    0.000096
   Res    0.000068    sqrt( Sum f_i^2 / 3N )
----------------------------------------
   Max    0.000096    constrained

Stress tensor Voigt[x,y,z,yz,xz,xy] (kbar):      137.38      137.38      137.38       -0.04       -0.04       -0.04
(Free)E + p*V (eV/cell)     -217.8466
Target enthalpy (eV/cell)     -212.4018

siesta: Stress tensor (static) (eV/Ang**3):
         0.085743   -0.000024   -0.000024
        -0.000024    0.085743   -0.000024
        -0.000024   -0.000024    0.085743

siesta: Pressure (static):       -137.37585979  kBar

siesta: Stress tensor (total) (eV/Ang**3):
         0.085743   -0.000024   -0.000024
        -0.000024    0.085743   -0.000024
        -0.000024   -0.000024    0.085743

siesta: Pressure (total):       -137.37585979  kBar

                     ====================================
                        Begin CG opt. move =      6
                     ====================================
k-point displ. along   1 input, could be:     0.00    0.50
k-point displ. along   2 input, could be:     0.00    0.50
k-point displ. along   3 input, could be:     0.00    0.50
 Kpoints in:          144 . Kpoints trimmed:          132

siesta: k-grid: Number of k-points = 132
siesta: k-points from Monkhorst-Pack grid
siesta: k-cutoff (effective) =    13.120 Ang
siesta: k-point supercell and displacements
siesta: k-grid:     6     0     0      0.000
siesta: k-grid:     0     6     0      0.000
siesta: k-grid:     0     0     6      0.000

superc: Internal auxiliary supercell:     5 x     5 x     5  =     125
superc: Number of atoms, orbitals, and projectors:    250   3250   1000

outcell: Unit cell vectors (Ang):
        0.000195    3.092549    3.092549
        3.092549    0.000195    3.092549
        3.092549    3.092549    0.000195

outcell: Cell vector modules (Ang)   :    4.373525    4.373525    4.373525
outcell: Cell angles (23,13,12) (deg):     59.9958     59.9958     59.9958
outcell: Cell volume (Ang**3)        :     59.1478
<dSpData1D:S at geom step 6
  <sparsity:sparsity for geom step 6
    nrows_g=26 nrows=14 sparsity=14.9438 nnzs=10102, refcount: 7>
  <dData1D:(new from dSpData1D) n=10102, refcount: 1>
refcount: 1>
new_DM -- step:     7
Re-using DM from previous geometries...
Number of DMs in history: 1
 DM extrapolation coefficients: 
1   1.00000
New DM after history re-use:
<dSpData2D:SpM extrapolated using coords
  <sparsity:sparsity for geom step 6
    nrows_g=26 nrows=14 sparsity=14.9438 nnzs=10102, refcount: 9>
  <dData2D:(temp array for extrapolation) n=10102 m=1, refcount: 1>
refcount: 1>
Note: For starting DM, Qtot, Tr[D*S] =          8.00000000          8.15518200
No. of atoms with KB's overlaping orbs in proc 0. Max # of overlaps:      17     161

InitMesh: MESH = 16 x 16 x 16 = 4096
InitMesh: Mesh cutoff (required, used) =    50.000    55.481 Ry
New grid distribution [1]: sub = 2
New grid distribution [2]: sub = 2
New grid distribution [3]: sub = 2
Setting up quadratic distribution...

        iscf     Eharris(eV)        E_KS(eV)     FreeEng(eV)     dDmax    Ef(eV) dHmax(eV)
   scf:    1     -212.556052     -212.773571     -212.774028  0.059457 -4.449682  0.054897
   scf:    2     -212.773733     -212.773663     -212.774120  0.002506 -4.402618  0.009250
   scf:    3     -212.773670     -212.773667     -212.774124  0.000350 -4.409227  0.000299
   scf:    4     -212.773667     -212.773667     -212.774124  0.000029 -4.409176  0.000226

SCF Convergence by DM+H criterion
max |DM_out - DM_in|         :     0.0000294219
max |H_out - H_in|      (eV) :     0.0002263144
SCF cycle converged after 4 iterations

Using DM_out to compute the final energy and forces
No. of atoms with KB's overlaping orbs in proc 0. Max # of overlaps:      17     161

siesta: E_KS(eV) =             -212.7737

siesta: Atomic forces (eV/Ang):
----------------------------------------
   Tot    0.000167    0.000167    0.000167
----------------------------------------
   Max    0.000421
   Res    0.000348    sqrt( Sum f_i^2 / 3N )
----------------------------------------
   Max    0.000421    constrained

Stress tensor Voigt[x,y,z,yz,xz,xy] (kbar):      135.93      135.93      135.93       -0.00       -0.00       -0.00
(Free)E + p*V (eV/cell)     -217.7924
Target enthalpy (eV/cell)     -212.7741

siesta: Stress tensor (static) (eV/Ang**3):
         0.084842   -0.000002   -0.000002
        -0.000002    0.084842   -0.000002
        -0.000002   -0.000002    0.084842

siesta: Pressure (static):       -135.93248361  kBar

siesta: Stress tensor (total) (eV/Ang**3):
         0.084842   -0.000002   -0.000002
        -0.000002    0.084842   -0.000002
        -0.000002   -0.000002    0.084842

siesta: Pressure (total):       -135.93248361  kBar

                     ====================================
                        Begin CG opt. move =      7
                     ====================================
k-point displ. along   1 input, could be:     0.00    0.50
k-point displ. along   2 input, could be:     0.00    0.50
k-point displ. along   3 input, could be:     0.00    0.50
 Kpoints in:          144 . Kpoints trimmed:          132

siesta: k-grid: Number of k-points = 132
siesta: k-points from Monkhorst-Pack grid
siesta: k-cutoff (effective) =    12.805 Ang
siesta: k-point supercell and displacements
siesta: k-grid:     6     0     0      0.000
siesta: k-grid:     0     6     0      0.000
siesta: k-grid:     0     0     6      0.000

superc: Internal auxiliary supercell:     5 x     5 x     5  =     125
superc: Number of atoms, orbitals, and projectors:    250   3250   1000

outcell: Unit cell vectors (Ang):
        0.000231    3.018482    3.018482
        3.018482    0.000231    3.018482
        3.018482    3.018482    0.000231

outcell: Cell vector modules (Ang)   :    4.268778    4.268778    4.268778
outcell: Cell angles (23,13,12) (deg):     59.9949     59.9949     59.9949
outcell: Cell volume (Ang**3)        :     54.9979
<dSpData1D:S at geom step 7
  <sparsity:sparsity for geom step 7
    nrows_g=26 nrows=14 sparsity=14.9438 nnzs=10102, refcount: 7>
  <dData1D:(new from dSpData1D) n=10102, refcount: 1>
refcount: 1>
new_DM -- step:     8
Re-using DM from previous geometries...
Number of DMs in history: 1
 DM extrapolation coefficients: 
1   1.00000
New DM after history re-use:
<dSpData2D:SpM extrapolated using coords
  <sparsity:sparsity for geom step 7
    nrows_g=26 nrows=14 sparsity=14.9438 nnzs=10102, refcount: 9>
  <dData2D:(temp array for extrapolation) n=10102 m=1, refcount: 1>
refcount: 1>
Note: For starting DM, Qtot, Tr[D*S] =          8.00000000          8.15975424
No. of atoms with KB's overlaping orbs in proc 0. Max # of overlaps:      17     161

InitMesh: MESH = 16 x 16 x 16 = 4096
InitMesh: Mesh cutoff (required, used) =    50.000    58.236 Ry
New grid distribution [1]: sub = 2
New grid distribution [2]: sub = 2
New grid distribution [3]: sub = 2
Setting up quadratic distribution...

        iscf     Eharris(eV)        E_KS(eV)     FreeEng(eV)     dDmax    Ef(eV) dHmax(eV)
   scf:    1     -212.872563     -213.118523     -213.118644  0.076967 -4.371409  0.054930
   scf:    2     -213.118710     -213.118628     -213.118740  0.003276 -4.321095  0.009040
   scf:    3     -213.118632     -213.118630     -213.118743  0.000412 -4.328049  0.000349
   scf:    4     -213.118630     -213.118630     -213.118744  0.000032 -4.328027  0.000265

SCF Convergence by DM+H criterion
max |DM_out - DM_in|         :     0.0000324848
max |H_out - H_in|      (eV) :     0.0002654048
SCF cycle converged after 4 iterations

Using DM_out to compute the final energy and forces
No. of atoms with KB's overlaping orbs in proc 0. Max # of overlaps:      17     161

siesta: E_KS(eV) =             -213.1186

siesta: Atomic forces (eV/Ang):
----------------------------------------
   Tot    0.000205    0.000205    0.000205
----------------------------------------
   Max    0.000905
   Res    0.000809    sqrt( Sum f_i^2 / 3N )
----------------------------------------
   Max    0.000905    constrained

Stress tensor Voigt[x,y,z,yz,xz,xy] (kbar):      129.57      129.57      129.57        0.04        0.04        0.04
(Free)E + p*V (eV/cell)     -217.5665
Target enthalpy (eV/cell)     -213.1187

siesta: Stress tensor (static) (eV/Ang**3):
         0.080871    0.000025    0.000025
         0.000025    0.080871    0.000025
         0.000025    0.000025    0.080871

siesta: Pressure (static):       -129.56989526  kBar

siesta: Stress tensor (total) (eV/Ang**3):
         0.080871    0.000025    0.000025
         0.000025    0.080871    0.000025
         0.000025    0.000025    0.080871

siesta: Pressure (total):       -129.56989526  kBar

                     ====================================
                        Begin CG opt. move =      8
                     ====================================
k-point displ. along   1 input, could be:     0.00    0.50
k-point displ. along   2 input, could be:     0.00    0.50
k-point displ. along   3 input, could be:     0.00    0.50
 Kpoints in:          144 . Kpoints trimmed:          132

siesta: k-grid: Number of k-points = 132
siesta: k-points from Monkhorst-Pack grid
siesta: k-cutoff (effective) =    12.491 Ang
siesta: k-point supercell and displacements
siesta: k-grid:     6     0     0      0.000
siesta: k-grid:     0     6     0      0.000
siesta: k-grid:     0     0     6      0.000

superc: Internal auxiliary supercell:     5 x     5 x     5  =     125
superc: Number of atoms, orbitals, and projectors:    250   3250   1000

outcell: Unit cell vectors (Ang):
        0.000266    2.944415    2.944415
        2.944415    0.000266    2.944415
        2.944415    2.944415    0.000266

outcell: Cell vector modules (Ang)   :    4.164032    4.164032    4.164032
outcell: Cell angles (23,13,12) (deg):     59.9940     59.9940     59.9940
outcell: Cell volume (Ang**3)        :     51.0468
<dSpData1D:S at geom step 8
  <sparsity:sparsity for geom step 8
    nrows_g=26 nrows=14 sparsity=14.9970 nnzs=10138, refcount: 7>
  <dData1D:(new from dSpData1D) n=10138, refcount: 1>
refcount: 1>
new_DM -- step:     9
Re-using DM from previous geometries...
Number of DMs in history: 1
 DM extrapolation coefficients: 
1   1.00000
New DM after history re-use:
<dSpData2D:SpM extrapolated using coords
  <sparsity:sparsity for geom step 8
    nrows_g=26 nrows=14 sparsity=14.9970 nnzs=10138, refcount: 9>
  <dData2D:(temp array for extrapolation) n=10138 m=1, refcount: 1>
refcount: 1>
Note: For starting DM, Qtot, Tr[D*S] =          8.00000000          8.16455683
No. of atoms with KB's overlaping orbs in proc 0. Max # of overlaps:      17     161

InitMesh: MESH = 16 x 16 x 16 = 4096
InitMesh: Mesh cutoff (required, used) =    50.000    61.202 Ry
New grid distribution [1]: sub = 2
New grid distribution [2]: sub = 2
New grid distribution [3]: sub = 2
Setting up quadratic distribution...

        iscf     Eharris(eV)        E_KS(eV)     FreeEng(eV)     dDmax    Ef(eV) dHmax(eV)
   scf:    1     -213.140183     -213.418141     -213.418141  0.080256 -4.064161  0.056358
   scf:    2     -213.418340     -213.418254     -213.418254  0.004341 -4.018188  0.009640
   scf:    3     -213.418262     -213.418258     -213.418258  0.000591 -4.024497  0.000326
   scf:    4     -213.418259     -213.418258     -213.418259  0.000027 -4.024452  0.000248

SCF Convergence by DM+H criterion
max |DM_out - DM_in|         :     0.0000265912
max |H_out - H_in|      (eV) :     0.0002483093
SCF cycle converged after 4 iterations

Using DM_out to compute the final energy and forces
No. of atoms with KB's overlaping orbs in proc 0. Max # of overlaps:      17     161

siesta: E_KS(eV) =             -213.4183

siesta: Atomic forces (eV/Ang):
----------------------------------------
   Tot    0.000237    0.000237    0.000237
----------------------------------------
   Max    0.001662
   Res    0.001548    sqrt( Sum f_i^2 / 3N )
----------------------------------------
   Max    0.001662    constrained

Stress tensor Voigt[x,y,z,yz,xz,xy] (kbar):      111.09      111.09      111.09        0.10        0.10        0.10
(Free)E + p*V (eV/cell)     -216.9577
Target enthalpy (eV/cell)     -213.4183

siesta: Stress tensor (static) (eV/Ang**3):
         0.069337    0.000059    0.000059
         0.000059    0.069337    0.000059
         0.000059    0.000059    0.069337

siesta: Pressure (static):       -111.09040788  kBar

siesta: Stress tensor (total) (eV/Ang**3):
         0.069337    0.000059    0.000059
         0.000059    0.069337    0.000059
         0.000059    0.000059    0.069337

siesta: Pressure (total):       -111.09040788  kBar

                     ====================================
                        Begin CG opt. move =      9
                     ====================================
k-point displ. along   1 input, could be:     0.00    0.50
k-point displ. along   2 input, could be:     0.00    0.50
k-point displ. along   3 input, could be:     0.00    0.50
 Kpoints in:          144 . Kpoints trimmed:          132

siesta: k-grid: Number of k-points = 132
siesta: k-points from Monkhorst-Pack grid
siesta: k-cutoff (effective) =    12.177 Ang
siesta: k-point supercell and displacements
siesta: k-grid:     6     0     0      0.000
siesta: k-grid:     0     6     0      0.000
siesta: k-grid:     0     0     6      0.000

superc: Internal auxiliary supercell:     5 x     5 x     5  =     125
superc: Number of atoms, orbitals, and projectors:    250   3250   1000

outcell: Unit cell vectors (Ang):
        0.000302    2.870348    2.870348
        2.870348    0.000302    2.870348
        2.870348    2.870348    0.000302

outcell: Cell vector modules (Ang)   :    4.059285    4.059285    4.059285
outcell: Cell angles (23,13,12) (deg):     59.9930     59.9930     59.9930
outcell: Cell volume (Ang**3)        :     47.2895
<dSpData1D:S at geom step 9
  <sparsity:sparsity for geom step 9
    nrows_g=26 nrows=14 sparsity=14.9970 nnzs=10138, refcount: 7>
  <dData1D:(new from dSpData1D) n=10138, refcount: 1>
refcount: 1>
new_DM -- step:    10
Re-using DM from previous geometries...
Number of DMs in history: 1
 DM extrapolation coefficients: 
1   1.00000
New DM after history re-use:
<dSpData2D:SpM extrapolated using coords
  <sparsity:sparsity for geom step 9
    nrows_g=26 nrows=14 sparsity=14.9970 nnzs=10138, refcount: 9>
  <dData2D:(temp array for extrapolation) n=10138 m=1, refcount: 1>
refcount: 1>
Note: For starting DM, Qtot, Tr[D*S] =          8.00000000          8.16664522
No. of atoms with KB's overlaping orbs in proc 0. Max # of overlaps:      17     161

InitMesh: MESH = 16 x 16 x 16 = 4096
InitMesh: Mesh cutoff (required, used) =    50.000    64.400 Ry
New grid distribution [1]: sub = 2
New grid distribution [2]: sub = 2
New grid distribution [3]: sub = 2
Setting up quadratic distribution...

        iscf     Eharris(eV)        E_KS(eV)     FreeEng(eV)     dDmax    Ef(eV) dHmax(eV)
   scf:    1     -213.318245     -213.645518     -213.645518  0.088542 -3.963826  0.058173
   scf:    2     -213.645753     -213.645652     -213.645652  0.005648 -3.917303  0.010335
   scf:    3     -213.645663     -213.645658     -213.645658  0.000814 -3.924159  0.000323
   scf:    4     -213.645658     -213.645658     -213.645658  0.000021 -3.924117  0.000246

SCF Convergence by DM+H criterion
max |DM_out - DM_in|         :     0.0000209991
max |H_out - H_in|      (eV) :     0.0002459273
SCF cycle converged after 4 iterations

Using DM_out to compute the final energy and forces
No. of atoms with KB's overlaping orbs in proc 0. Max # of overlaps:      17     161

siesta: E_KS(eV) =             -213.6457

siesta: Atomic forces (eV/Ang):
----------------------------------------
   Tot    0.000268    0.000268    0.000268
----------------------------------------
   Max    0.002710
   Res    0.002579    sqrt( Sum f_i^2 / 3N )
----------------------------------------
   Max    0.002710    constrained

Stress tensor Voigt[x,y,z,yz,xz,xy] (kbar):       80.75       80.75       80.75        0.16        0.16        0.16
(Free)E + p*V (eV/cell)     -216.0290
Target enthalpy (eV/cell)     -213.6457

siesta: Stress tensor (static) (eV/Ang**3):
         0.050399    0.000098    0.000098
         0.000098    0.050399    0.000098
         0.000098    0.000098    0.050399

siesta: Pressure (static):        -80.74755037  kBar

siesta: Stress tensor (total) (eV/Ang**3):
         0.050399    0.000098    0.000098
         0.000098    0.050399    0.000098
         0.000098    0.000098    0.050399

siesta: Pressure (total):        -80.74755037  kBar

                     ====================================
                        Begin CG opt. move =     10
                     ====================================
k-point displ. along   1 input, could be:     0.00    0.50
k-point displ. along   2 input, could be:     0.00    0.50
k-point displ. along   3 input, could be:     0.00    0.50
 Kpoints in:          144 . Kpoints trimmed:          132

siesta: k-grid: Number of k-points = 132
siesta: k-points from Monkhorst-Pack grid
siesta: k-cutoff (effective) =    11.862 Ang
siesta: k-point supercell and displacements
siesta: k-grid:     6     0     0      0.000
siesta: k-grid:     0     6     0      0.000
siesta: k-grid:     0     0     6      0.000

superc: Internal auxiliary supercell:     5 x     5 x     5  =     125
superc: Number of atoms, orbitals, and projectors:    250   3250   1000

outcell: Unit cell vectors (Ang):
        0.000338    2.796281    2.796281
        2.796281    0.000338    2.796281
        2.796281    2.796281    0.000338

outcell: Cell vector modules (Ang)   :    3.954539    3.954539    3.954539
outcell: Cell angles (23,13,12) (deg):     59.9920     59.9920     59.9920
outcell: Cell volume (Ang**3)        :     43.7214
<dSpData1D:S at geom step 10
  <sparsity:sparsity for geom step 10
    nrows_g=26 nrows=14 sparsity=15.2633 nnzs=10318, refcount: 7>
  <dData1D:(new from dSpData1D) n=10318, refcount: 1>
refcount: 1>
new_DM -- step:    11
Re-using DM from previous geometries...
Number of DMs in history: 1
 DM extrapolation coefficients: 
1   1.00000
New DM after history re-use:
<dSpData2D:SpM extrapolated using coords
  <sparsity:sparsity for geom step 10
    nrows_g=26 nrows=14 sparsity=15.2633 nnzs=10318, refcount: 9>
  <dData2D:(temp array for extrapolation) n=10318 m=1, refcount: 1>
refcount: 1>
Note: For starting DM, Qtot, Tr[D*S] =          8.00000000          8.16712056
No. of atoms with KB's overlaping orbs in proc 0. Max # of overlaps:      17     161

InitMesh: MESH = 16 x 16 x 16 = 4096
InitMesh: Mesh cutoff (required, used) =    50.000    67.856 Ry
New grid distribution [1]: sub = 2
New grid distribution [2]: sub = 2
New grid distribution [3]: sub = 2
Setting up quadratic distribution...

        iscf     Eharris(eV)        E_KS(eV)     FreeEng(eV)     dDmax    Ef(eV) dHmax(eV)
   scf:    1     -213.386044     -213.778239     -213.778239  0.083238 -3.999985  0.059019
   scf:    2     -213.778504     -213.778391     -213.778391  0.007154 -3.957322  0.010815
   scf:    3     -213.778403     -213.778397     -213.778397  0.001069 -3.964626  0.000332
   scf:    4     -213.778398     -213.778398     -213.778398  0.000018 -3.964579  0.000253

SCF Convergence by DM+H criterion
max |DM_out - DM_in|         :     0.0000180598
max |H_out - H_in|      (eV) :     0.0002531757
SCF cycle converged after 4 iterations

Using DM_out to compute the final energy and forces
No. of atoms with KB's overlaping orbs in proc 0. Max # of overlaps:      17     161

siesta: E_KS(eV) =             -213.7784

siesta: Atomic forces (eV/Ang):
----------------------------------------
   Tot    0.000410    0.000410    0.000410
----------------------------------------
   Max    0.003986
   Res    0.003787    sqrt( Sum f_i^2 / 3N )
----------------------------------------
   Max    0.003986    constrained

Stress tensor Voigt[x,y,z,yz,xz,xy] (kbar):       35.03       35.03       35.03        0.23        0.23        0.23
(Free)E + p*V (eV/cell)     -214.7343
Target enthalpy (eV/cell)     -213.7784

siesta: Stress tensor (static) (eV/Ang**3):
         0.021863    0.000145    0.000145
         0.000145    0.021863    0.000145
         0.000145    0.000145    0.021863

siesta: Pressure (static):        -35.02909781  kBar

siesta: Stress tensor (total) (eV/Ang**3):
         0.021863    0.000145    0.000145
         0.000145    0.021863    0.000145
         0.000145    0.000145    0.021863

siesta: Pressure (total):        -35.02909781  kBar

                     ====================================
                        Begin CG opt. move =     11
                     ====================================
k-point displ. along   1 input, could be:     0.00    0.50
k-point displ. along   2 input, could be:     0.00    0.50
k-point displ. along   3 input, could be:     0.00    0.50
 Kpoints in:          144 . Kpoints trimmed:          132

siesta: k-grid: Number of k-points = 132
siesta: k-points from Monkhorst-Pack grid
siesta: k-cutoff (effective) =    11.548 Ang
siesta: k-point supercell and displacements
siesta: k-grid:     6     0     0      0.000
siesta: k-grid:     0     6     0      0.000
siesta: k-grid:     0     0     6      0.000

superc: Internal auxiliary supercell:     5 x     5 x     5  =     125
superc: Number of atoms, orbitals, and projectors:    250   3250   1000

outcell: Unit cell vectors (Ang):
        0.000373    2.722214    2.722214
        2.722214    0.000373    2.722214
        2.722214    2.722214    0.000373

outcell: Cell vector modules (Ang)   :    3.849792    3.849792    3.849792
outcell: Cell angles (23,13,12) (deg):     59.9909     59.9909     59.9909
outcell: Cell volume (Ang**3)        :     40.3374
<dSpData1D:S at geom step 11
  <sparsity:sparsity for geom step 11
    nrows_g=26 nrows=14 sparsity=16.8580 nnzs=11396, refcount: 7>
  <dData1D:(new from dSpData1D) n=11396, refcount: 1>
refcount: 1>
new_DM -- step:    12
Re-using DM from previous geometries...
Number of DMs in history: 1
 DM extrapolation coefficients: 
1   1.00000
New DM after history re-use:
<dSpData2D:SpM extrapolated using coords
  <sparsity:sparsity for geom step 11
    nrows_g=26 nrows=14 sparsity=16.8580 nnzs=11396, refcount: 9>
  <dData2D:(temp array for extrapolation) n=11396 m=1, refcount: 1>
refcount: 1>
Note: For starting DM, Qtot, Tr[D*S] =          8.00000000          8.16642243
No. of atoms with KB's overlaping orbs in proc 0. Max # of overlaps:      17     161

InitMesh: MESH = 16 x 16 x 16 = 4096
InitMesh: Mesh cutoff (required, used) =    50.000    71.598 Ry
New grid distribution [1]: sub = 2
New grid distribution [2]: sub = 2
New grid distribution [3]: sub = 2
Setting up quadratic distribution...

        iscf     Eharris(eV)        E_KS(eV)     FreeEng(eV)     dDmax    Ef(eV) dHmax(eV)
   scf:    1     -213.314067     -213.784390     -213.784390  0.081229 -4.060627  0.059086
   scf:    2     -213.784682     -213.784559     -213.784559  0.008447 -4.019394  0.011218
   scf:    3     -213.784573     -213.784567     -213.784567  0.001307 -4.025791  0.000335
   scf:    4     -213.784567     -213.784567     -213.784567  0.000015 -4.025638  0.000255

SCF Convergence by DM+H criterion
max |DM_out - DM_in|         :     0.0000152599
max |H_out - H_in|      (eV) :     0.0002552659
SCF cycle converged after 4 iterations

Using DM_out to compute the final energy and forces
No. of atoms with KB's overlaping orbs in proc 0. Max # of overlaps:      17     161

siesta: E_KS(eV) =             -213.7846

siesta: Atomic forces (eV/Ang):
----------------------------------------
   Tot    0.000363    0.000363    0.000363
----------------------------------------
   Max    0.005871
   Res    0.005692    sqrt( Sum f_i^2 / 3N )
----------------------------------------
   Max    0.005871    constrained

Stress tensor Voigt[x,y,z,yz,xz,xy] (kbar):      -34.83      -34.83      -34.83        0.35        0.35        0.35
(Free)E + p*V (eV/cell)     -212.9077
Target enthalpy (eV/cell)     -213.7846

siesta: Stress tensor (static) (eV/Ang**3):
        -0.021739    0.000216    0.000216
         0.000216   -0.021739    0.000216
         0.000216    0.000216   -0.021739

siesta: Pressure (static):         34.82910865  kBar

siesta: Stress tensor (total) (eV/Ang**3):
        -0.021739    0.000216    0.000216
         0.000216   -0.021739    0.000216
         0.000216    0.000216   -0.021739

siesta: Pressure (total):         34.82910865  kBar

                     ====================================
                        Begin CG opt. move =     12
                     ====================================
k-point displ. along   1 input, could be:     0.00    0.50
k-point displ. along   2 input, could be:     0.00    0.50
k-point displ. along   3 input, could be:     0.00    0.50
 Kpoints in:          144 . Kpoints trimmed:          132

siesta: k-grid: Number of k-points = 132
siesta: k-points from Monkhorst-Pack grid
siesta: k-cutoff (effective) =    11.698 Ang
siesta: k-point supercell and displacements
siesta: k-grid:     6     0     0      0.000
siesta: k-grid:     0     6     0      0.000
siesta: k-grid:     0     0     6      0.000

superc: Internal auxiliary supercell:     5 x     5 x     5  =     125
superc: Number of atoms, orbitals, and projectors:    250   3250   1000

outcell: Unit cell vectors (Ang):
        0.000356    2.757651    2.757651
        2.757651    0.000356    2.757651
        2.757651    2.757651    0.000356

outcell: Cell vector modules (Ang)   :    3.899908    3.899908    3.899908
outcell: Cell angles (23,13,12) (deg):     59.9915     59.9915     59.9915
outcell: Cell volume (Ang**3)        :     41.9338
<dSpData1D:S at geom step 12
  <sparsity:sparsity for geom step 12
    nrows_g=26 nrows=14 sparsity=16.7781 nnzs=11342, refcount: 7>
  <dData1D:(new from dSpData1D) n=11342, refcount: 1>
refcount: 1>
new_DM -- step:    13
Re-using DM from previous geometries...
Number of DMs in history: 1
 DM extrapolation coefficients: 
1   1.00000
New DM after history re-use:
<dSpData2D:SpM extrapolated using coords
  <sparsity:sparsity for geom step 12
    nrows_g=26 nrows=14 sparsity=16.7781 nnzs=11342, refcount: 9>
  <dData2D:(temp array for extrapolation) n=11342 m=1, refcount: 1>
refcount: 1>
Note: For starting DM, Qtot, Tr[D*S] =          8.00000000          7.91838280
No. of atoms with KB's overlaping orbs in proc 0. Max # of overlaps:      17     161

InitMesh: MESH = 16 x 16 x 16 = 4096
InitMesh: Mesh cutoff (required, used) =    50.000    69.770 Ry
New grid distribution [1]: sub = 2
New grid distribution [2]: sub = 2
New grid distribution [3]: sub = 2
Setting up quadratic distribution...

        iscf     Eharris(eV)        E_KS(eV)     FreeEng(eV)     dDmax    Ef(eV) dHmax(eV)
   scf:    1     -214.043372     -213.800238     -213.800238  0.038801 -3.976229  0.028294
   scf:    2     -213.800301     -213.800274     -213.800274  0.003771 -3.995926  0.005214
   scf:    3     -213.800277     -213.800276     -213.800276  0.000562 -3.993098  0.000173
   scf:    4     -213.800276     -213.800276     -213.800276  0.000007 -3.993128  0.000133

SCF Convergence by DM+H criterion
max |DM_out - DM_in|         :     0.0000069540
max |H_out - H_in|      (eV) :     0.0001325289
SCF cycle converged after 4 iterations

Using DM_out to compute the final energy and forces
No. of atoms with KB's overlaping orbs in proc 0. Max # of overlaps:      17     161

siesta: E_KS(eV) =             -213.8003

siesta: Atomic forces (eV/Ang):
----------------------------------------
   Tot    0.000410    0.000410    0.000410
----------------------------------------
   Max    0.004962
   Res    0.004761    sqrt( Sum f_i^2 / 3N )
----------------------------------------
   Max    0.004962    constrained

Stress tensor Voigt[x,y,z,yz,xz,xy] (kbar):        2.24        2.24        2.24        0.29        0.29        0.29
(Free)E + p*V (eV/cell)     -213.8588
Target enthalpy (eV/cell)     -213.8003

siesta: Stress tensor (static) (eV/Ang**3):
         0.001396    0.000184    0.000184
         0.000184    0.001396    0.000184
         0.000184    0.000184    0.001396

siesta: Pressure (static):         -2.23709655  kBar

siesta: Stress tensor (total) (eV/Ang**3):
         0.001396    0.000184    0.000184
         0.000184    0.001396    0.000184
         0.000184    0.000184    0.001396

siesta: Pressure (total):         -2.23709655  kBar

cgvc: Finished line minimization    1.  Mean atomic displacement =    0.3395

                     ====================================
                        Begin CG opt. move =     13
                     ====================================
k-point displ. along   1 input, could be:     0.00    0.50
k-point displ. along   2 input, could be:     0.00    0.50
k-point displ. along   3 input, could be:     0.00    0.50
 Kpoints in:          144 . Kpoints trimmed:          132

siesta: k-grid: Number of k-points = 132
siesta: k-points from Monkhorst-Pack grid
siesta: k-cutoff (effective) =    11.604 Ang
siesta: k-point supercell and displacements
siesta: k-grid:     6     0     0      0.000
siesta: k-grid:     0     6     0      0.000
siesta: k-grid:     0     0     6      0.000

superc: Internal auxiliary supercell:     5 x     5 x     5  =     125
superc: Number of atoms, orbitals, and projectors:    250   3250   1000

outcell: Unit cell vectors (Ang):
       -0.040955    2.734848    2.734848
        2.734848   -0.040955    2.734848
        2.734848    2.734848   -0.040955

outcell: Cell vector modules (Ang)   :    3.867876    3.867877    3.867876
outcell: Cell angles (23,13,12) (deg):     60.9895     60.9895     60.9895
outcell: Cell volume (Ang**3)        :     41.8289
<dSpData1D:S at geom step 13
  <sparsity:sparsity for geom step 13
    nrows_g=26 nrows=14 sparsity=17.9882 nnzs=12160, refcount: 7>
  <dData1D:(new from dSpData1D) n=12160, refcount: 1>
refcount: 1>
new_DM -- step:    14
Re-using DM from previous geometries...
Number of DMs in history: 1
 DM extrapolation coefficients: 
1   1.00000
New DM after history re-use:
<dSpData2D:SpM extrapolated using coords
  <sparsity:sparsity for geom step 13
    nrows_g=26 nrows=14 sparsity=17.9882 nnzs=12160, refcount: 9>
  <dData2D:(temp array for extrapolation) n=12160 m=1, refcount: 1>
refcount: 1>
Note: For starting DM, Qtot, Tr[D*S] =          8.00000000          7.85917726
No. of atoms with KB's overlaping orbs in proc 0. Max # of overlaps:      23     209

InitMesh: MESH = 16 x 16 x 16 = 4096
InitMesh: Mesh cutoff (required, used) =    50.000    69.220 Ry
New grid distribution [1]: sub = 2
New grid distribution [2]: sub = 2
New grid distribution [3]: sub = 2
Setting up quadratic distribution...

        iscf     Eharris(eV)        E_KS(eV)     FreeEng(eV)     dDmax    Ef(eV) dHmax(eV)
   scf:    1     -211.747203     -212.189095     -212.191738  0.127844 -4.085590  0.128377
   scf:    2     -212.190220     -212.191186     -212.193679  0.014559 -4.185185  0.048429
   scf:    3     -212.193051     -212.192323     -212.194861  0.004295 -4.152002  0.013672
   scf:    4     -212.192342     -212.192333     -212.194875  0.000463 -4.153219  0.009574
   scf:    5     -212.192335     -212.192335     -212.194884  0.000967 -4.155975  0.001027
   scf:    6     -212.192336     -212.192336     -212.194885  0.000053 -4.156250  0.000555

SCF Convergence by DM+H criterion
max |DM_out - DM_in|         :     0.0000525860
max |H_out - H_in|      (eV) :     0.0005547417
SCF cycle converged after 6 iterations

Using DM_out to compute the final energy and forces
No. of atoms with KB's overlaping orbs in proc 0. Max # of overlaps:      23     209

siesta: E_KS(eV) =             -212.1923

siesta: Atomic forces (eV/Ang):
----------------------------------------
   Tot    0.009561    0.009561    0.009561
----------------------------------------
   Max    5.410733
   Res    5.405955    sqrt( Sum f_i^2 / 3N )
----------------------------------------
   Max    5.410733    constrained

Stress tensor Voigt[x,y,z,yz,xz,xy] (kbar):     -106.11     -106.11     -106.11     -183.60     -183.60     -183.60
(Free)E + p*V (eV/cell)     -209.4246
Target enthalpy (eV/cell)     -212.1949

siesta: Stress tensor (static) (eV/Ang**3):
        -0.066229   -0.114596   -0.114596
        -0.114596   -0.066229   -0.114596
        -0.114596   -0.114596   -0.066229

siesta: Pressure (static):        106.11041654  kBar

siesta: Stress tensor (total) (eV/Ang**3):
        -0.066229   -0.114596   -0.114596
        -0.114596   -0.066229   -0.114596
        -0.114596   -0.114596   -0.066229

siesta: Pressure (total):        106.11041654  kBar

                     ====================================
                        Begin CG opt. move =     14
                     ====================================
k-point displ. along   1 input, could be:     0.00    0.50
k-point displ. along   2 input, could be:     0.00    0.50
k-point displ. along   3 input, could be:     0.00    0.50
 Kpoints in:          144 . Kpoints trimmed:          132

siesta: k-grid: Number of k-points = 132
siesta: k-points from Monkhorst-Pack grid
siesta: k-cutoff (effective) =    11.698 Ang
siesta: k-point supercell and displacements
siesta: k-grid:     6     0     0      0.000
siesta: k-grid:     0     6     0      0.000
siesta: k-grid:     0     0     6      0.000

superc: Internal auxiliary supercell:     5 x     5 x     5  =     125
superc: Number of atoms, orbitals, and projectors:    250   3250   1000

outcell: Unit cell vectors (Ang):
        0.000317    2.757630    2.757630
        2.757630    0.000317    2.757630
        2.757630    2.757630    0.000317

outcell: Cell vector modules (Ang)   :    3.899878    3.899878    3.899878
outcell: Cell angles (23,13,12) (deg):     59.9924     59.9924     59.9924
outcell: Cell volume (Ang**3)        :     41.9337
<dSpData1D:S at geom step 14
  <sparsity:sparsity for geom step 14
    nrows_g=26 nrows=14 sparsity=16.7781 nnzs=11342, refcount: 7>
  <dData1D:(new from dSpData1D) n=11342, refcount: 1>
refcount: 1>
new_DM -- step:    15
Re-using DM from previous geometries...
Number of DMs in history: 1
 DM extrapolation coefficients: 
1   1.00000
New DM after history re-use:
<dSpData2D:SpM extrapolated using coords
  <sparsity:sparsity for geom step 14
    nrows_g=26 nrows=14 sparsity=16.7781 nnzs=11342, refcount: 9>
  <dData2D:(temp array for extrapolation) n=11342 m=1, refcount: 1>
refcount: 1>
Note: For starting DM, Qtot, Tr[D*S] =          8.00000000          7.98545364
No. of atoms with KB's overlaping orbs in proc 0. Max # of overlaps:      17     161

InitMesh: MESH = 16 x 16 x 16 = 4096
InitMesh: Mesh cutoff (required, used) =    50.000    69.772 Ry
New grid distribution [1]: sub = 2
New grid distribution [2]: sub = 2
New grid distribution [3]: sub = 2
Setting up quadratic distribution...

        iscf     Eharris(eV)        E_KS(eV)     FreeEng(eV)     dDmax    Ef(eV) dHmax(eV)
   scf:    1     -214.213757     -213.795666     -213.795666  0.119478 -4.036469  0.103988
   scf:    2     -213.799466     -213.799195     -213.799195  0.012576 -3.971590  0.044103
   scf:    3     -213.801006     -213.800265     -213.800265  0.003429 -3.999534  0.011681
   scf:    4     -213.800279     -213.800272     -213.800272  0.000326 -3.997488  0.008163
   scf:    5     -213.800282     -213.800278     -213.800278  0.000703 -3.993817  0.000630
   scf:    6     -213.800278     -213.800278     -213.800278  0.000019 -3.993699  0.000355

SCF Convergence by DM+H criterion
max |DM_out - DM_in|         :     0.0000190200
max |H_out - H_in|      (eV) :     0.0003554591
SCF cycle converged after 6 iterations

Using DM_out to compute the final energy and forces
No. of atoms with KB's overlaping orbs in proc 0. Max # of overlaps:      17     161

siesta: E_KS(eV) =             -213.8003

siesta: Atomic forces (eV/Ang):
----------------------------------------
   Tot    0.000425    0.000425    0.000425
----------------------------------------
   Max    0.002178
   Res    0.001977    sqrt( Sum f_i^2 / 3N )
----------------------------------------
   Max    0.002178    constrained

Stress tensor Voigt[x,y,z,yz,xz,xy] (kbar):        2.22        2.22        2.22        0.20        0.20        0.20
(Free)E + p*V (eV/cell)     -213.8583
Target enthalpy (eV/cell)     -213.8003

siesta: Stress tensor (static) (eV/Ang**3):
         0.001383    0.000126    0.000126
         0.000126    0.001383    0.000126
         0.000126    0.000126    0.001383

siesta: Pressure (static):         -2.21644645  kBar

siesta: Stress tensor (total) (eV/Ang**3):
         0.001383    0.000126    0.000126
         0.000126    0.001383    0.000126
         0.000126    0.000126    0.001383

siesta: Pressure (total):         -2.21644645  kBar

cgvc: Finished line minimization    2.  Mean atomic displacement =    0.0003

                     ====================================
                        Begin CG opt. move =     15
                     ====================================
k-point displ. along   1 input, could be:     0.00    0.50
k-point displ. along   2 input, could be:     0.00    0.50
k-point displ. along   3 input, could be:     0.00    0.50
 Kpoints in:          144 . Kpoints trimmed:          132

siesta: k-grid: Number of k-points = 132
siesta: k-points from Monkhorst-Pack grid
siesta: k-cutoff (effective) =    11.698 Ang
siesta: k-point supercell and displacements
siesta: k-grid:     6     0     0      0.000
siesta: k-grid:     0     6     0      0.000
siesta: k-grid:     0     0     6      0.000

superc: Internal auxiliary supercell:     5 x     5 x     5  =     125
superc: Number of atoms, orbitals, and projectors:    250   3250   1000

outcell: Unit cell vectors (Ang):
        0.000302    2.757528    2.757528
        2.757528    0.000302    2.757528
        2.757528    2.757528    0.000302

outcell: Cell vector modules (Ang)   :    3.899734    3.899734    3.899734
outcell: Cell angles (23,13,12) (deg):     59.9928     59.9928     59.9928
outcell: Cell volume (Ang**3)        :     41.9294
<dSpData1D:S at geom step 15
  <sparsity:sparsity for geom step 15
    nrows_g=26 nrows=14 sparsity=16.7781 nnzs=11342, refcount: 7>
  <dData1D:(new from dSpData1D) n=11342, refcount: 1>
refcount: 1>
new_DM -- step:    16
Re-using DM from previous geometries...
Number of DMs in history: 1
 DM extrapolation coefficients: 
1   1.00000
New DM after history re-use:
<dSpData2D:SpM extrapolated using coords
  <sparsity:sparsity for geom step 15
    nrows_g=26 nrows=14 sparsity=16.7781 nnzs=11342, refcount: 9>
  <dData2D:(temp array for extrapolation) n=11342 m=1, refcount: 1>
refcount: 1>
No. of atoms with KB's overlaping orbs in proc 0. Max # of overlaps:      17     161

InitMesh: MESH = 16 x 16 x 16 = 4096
InitMesh: Mesh cutoff (required, used) =    50.000    69.778 Ry
New grid distribution [1]: sub = 2
New grid distribution [2]: sub = 2
New grid distribution [3]: sub = 2
Setting up quadratic distribution...

        iscf     Eharris(eV)        E_KS(eV)     FreeEng(eV)     dDmax    Ef(eV) dHmax(eV)
   scf:    1     -213.799674     -213.800284     -213.800284  0.000086 -3.993407  0.000186

SCF Convergence by DM+H criterion
max |DM_out - DM_in|         :     0.0000861953
max |H_out - H_in|      (eV) :     0.0001856639
SCF cycle converged after 1 iterations

Using DM_out to compute the final energy and forces
No. of atoms with KB's overlaping orbs in proc 0. Max # of overlaps:      17     161

siesta: E_KS(eV) =             -213.8003

siesta: Atomic forces (eV/Ang):
----------------------------------------
   Tot    0.000439    0.000439    0.000439
----------------------------------------
   Max    0.001805
   Res    0.001601    sqrt( Sum f_i^2 / 3N )
----------------------------------------
   Max    0.001805    constrained

Stress tensor Voigt[x,y,z,yz,xz,xy] (kbar):        2.14        2.14        2.14        0.19        0.19        0.19
(Free)E + p*V (eV/cell)     -213.8562
Target enthalpy (eV/cell)     -213.8003

siesta: Stress tensor (static) (eV/Ang**3):
         0.001333    0.000116    0.000116
         0.000116    0.001333    0.000116
         0.000116    0.000116    0.001333

siesta: Pressure (static):         -2.13587398  kBar

siesta: Stress tensor (total) (eV/Ang**3):
         0.001333    0.000116    0.000116
         0.000116    0.001333    0.000116
         0.000116    0.000116    0.001333

siesta: Pressure (total):         -2.13587398  kBar

                     ====================================
                        Begin CG opt. move =     16
                     ====================================
k-point displ. along   1 input, could be:     0.00    0.50
k-point displ. along   2 input, could be:     0.00    0.50
k-point displ. along   3 input, could be:     0.00    0.50
 Kpoints in:          144 . Kpoints trimmed:          132

siesta: k-grid: Number of k-points = 132
siesta: k-points from Monkhorst-Pack grid
siesta: k-cutoff (effective) =    11.697 Ang
siesta: k-point supercell and displacements
siesta: k-grid:     6     0     0      0.000
siesta: k-grid:     0     6     0      0.000
siesta: k-grid:     0     0     6      0.000

superc: Internal auxiliary supercell:     5 x     5 x     5  =     125
superc: Number of atoms, orbitals, and projectors:    250   3250   1000

outcell: Unit cell vectors (Ang):
        0.000278    2.757366    2.757366
        2.757366    0.000278    2.757366
        2.757366    2.757366    0.000278

outcell: Cell vector modules (Ang)   :    3.899504    3.899504    3.899504
outcell: Cell angles (23,13,12) (deg):     59.9933     59.9933     59.9933
outcell: Cell volume (Ang**3)        :     41.9225
<dSpData1D:S at geom step 16
  <sparsity:sparsity for geom step 16
    nrows_g=26 nrows=14 sparsity=16.7781 nnzs=11342, refcount: 7>
  <dData1D:(new from dSpData1D) n=11342, refcount: 1>
refcount: 1>
new_DM -- step:    17
Re-using DM from previous geometries...
Number of DMs in history: 1
 DM extrapolation coefficients: 
1   1.00000
New DM after history re-use:
<dSpData2D:SpM extrapolated using coords
  <sparsity:sparsity for geom step 16
    nrows_g=26 nrows=14 sparsity=16.7781 nnzs=11342, refcount: 9>
  <dData2D:(temp array for extrapolation) n=11342 m=1, refcount: 1>
refcount: 1>
No. of atoms with KB's overlaping orbs in proc 0. Max # of overlaps:      17     161

InitMesh: MESH = 16 x 16 x 16 = 4096
InitMesh: Mesh cutoff (required, used) =    50.000    69.786 Ry
New grid distribution [1]: sub = 2
New grid distribution [2]: sub = 2
New grid distribution [3]: sub = 2
Setting up quadratic distribution...

        iscf     Eharris(eV)        E_KS(eV)     FreeEng(eV)     dDmax    Ef(eV) dHmax(eV)
   scf:    1     -213.799317     -213.800294     -213.800294  0.000171 -3.993627  0.000146
   scf:    2     -213.800294     -213.800294     -213.800294  0.000018 -3.993523  0.000046

SCF Convergence by DM+H criterion
max |DM_out - DM_in|         :     0.0000175156
max |H_out - H_in|      (eV) :     0.0000460645
SCF cycle converged after 2 iterations

Using DM_out to compute the final energy and forces
No. of atoms with KB's overlaping orbs in proc 0. Max # of overlaps:      17     161

siesta: E_KS(eV) =             -213.8003

siesta: Atomic forces (eV/Ang):
----------------------------------------
   Tot    0.000461    0.000461    0.000461
----------------------------------------
   Max    0.000769
   Res    0.000586    sqrt( Sum f_i^2 / 3N )
----------------------------------------
   Max    0.000769    constrained

Stress tensor Voigt[x,y,z,yz,xz,xy] (kbar):        1.99        1.99        1.99        0.15        0.15        0.15
(Free)E + p*V (eV/cell)     -213.8524
Target enthalpy (eV/cell)     -213.8003

siesta: Stress tensor (static) (eV/Ang**3):
         0.001242    0.000093    0.000093
         0.000093    0.001242    0.000093
         0.000093    0.000093    0.001242

siesta: Pressure (static):         -1.98973813  kBar

siesta: Stress tensor (total) (eV/Ang**3):
         0.001242    0.000093    0.000093
         0.000093    0.001242    0.000093
         0.000093    0.000093    0.001242

siesta: Pressure (total):         -1.98973813  kBar

outcoor: Relaxed atomic coordinates (fractional):           
    0.25001795    0.25001795    0.25001795   1       1  Si
    0.00001590    0.00001590    0.00001590   1       2  Si

outcell: Unit cell vectors (Ang):
        0.000278    2.757366    2.757366
        2.757366    0.000278    2.757366
        2.757366    2.757366    0.000278

outcell: Cell vector modules (Ang)   :    3.899504    3.899504    3.899504
outcell: Cell angles (23,13,12) (deg):     59.9933     59.9933     59.9933
outcell: Cell volume (Ang**3)        :     41.9225

siesta: Program's energy decomposition (eV):
siesta: Ebs     =       -75.408059
siesta: Eions   =       444.480597
siesta: Ena     =       174.534112
siesta: Ekin    =        81.008981
siesta: Enl     =        35.372052
siesta: Eso     =         0.000000
siesta: Edftu   =         0.000000
siesta: DEna    =         4.084709
siesta: DUscf   =         0.293541
siesta: DUext   =         0.000000
siesta: Ex      =       -56.397894
siesta: Ec      =        -8.215198
siesta: Exc     =       -64.613091
siesta: EbV     =         0.000000
siesta: eta*DQ  =         0.000000
siesta: Emadel  =         0.000000
siesta: Emeta   =         0.000000
siesta: Emolmec =         0.000000
siesta: Ekinion =         0.000000
siesta: Eharris =      -213.800294
siesta: Etot    =      -213.800294
siesta: FreeEng =      -213.800294

siesta: Final energy (eV):
siesta:  Band Struct. =     -75.408059
siesta:       Kinetic =      81.008981
siesta:       Hartree =      15.233087
siesta:         Edftu =       0.000000
siesta:       Eso     =       0.000000
siesta:    Ext. field =       0.000000
siesta:         Exch. =     -56.397894
siesta:         Corr. =      -8.215198
siesta:     Bulk bias =       0.000000
siesta:   Exch.-corr. =     -64.613091
siesta:  Ion-electron =    -102.815711
siesta:       Ion-ion =    -142.613559
siesta:       Ekinion =       0.000000
siesta: D3 dispersion =       0.000000
siesta:         Total =    -213.800294
siesta:         Fermi =      -3.993523

siesta: Stress tensor (static) (eV/Ang**3):
siesta:     0.001242    0.000093    0.000093
siesta:     0.000093    0.001242    0.000093
siesta:     0.000093    0.000093    0.001242

siesta: Constrained stress tensor (static) (eV/Ang**3):
siesta:     0.001242    0.000093    0.000093
siesta:     0.000093    0.001242    0.000093
siesta:     0.000093    0.000093    0.001242

siesta: Cell volume =         41.922539 Ang**3

siesta: Pressure (static):
siesta:                Solid            Molecule  Units
siesta:          -0.00001353         -0.00001333  Ry/Bohr**3
siesta:          -0.00124190         -0.00122419  eV/Ang**3
siesta:          -1.98973813         -1.96136647  kBar
(Free)E+ p_basis*V_orbitals  =        -212.285338
(Free)Eharris+ p_basis*V_orbitals  =        -212.285338

cite: Please see "Si-diamond.bib" for an exhaustive BiBTeX file.
cite: Please clearly indicate Siesta version in published work: 5.0.1
cite: This calculation has made use of the following articles
cite: which are encouraged to be cited in a published work.
        Primary SIESTA paper
          DOI: www.doi.org/10.1088/0953-8984/14/11/302


>> End of run:   5-DEC-2024  17:11:34
Job completed
