Executable      : siesta
Version         : 5.0.1
Architecture    : x86_64
Compiler version: GNU-12.4.0
Compiler flags  : -march=nocona -mtune=haswell -ftree-vectorize -fPIC -fstack-protector-strong -fno-plt -O2 -ffunction-sections -pipe -isystem <prefix>/include -fdebug-prefix-map=<prefix>/work=/usr/local/src/conda/siesta-5.0.1 -fdebug-prefix-map=<prefix>=/usr/local/src/conda-prefix -I<prefix>/lib -fallow-argument-mismatch -O3
Parallelisations: MPI
NetCDF support
NetCDF-4 support
NetCDF-4 MPI-IO support
Lua support
Native ELPA support
DFT-D3 support

Runtime information:
* Directory : /home/carlos/documents/siesta-hands-on/siesta-complete-guide/Chapter-8/k-points/ec_4
* Running on 2 nodes in parallel.
>> Start of run:   5-DEC-2024  17:23:14

                           *********************** 
                           *  WELCOME TO SIESTA  * 
                           *********************** 

 NOTE: Siesta V5 introduces some new defaults for basis-set generation
 NOTE: which might lead to slightly different numerical results.
 NOTE: Please see the manual for full details and compatibility measures.


reinit: Reading from file calc.fdf

reinit: -----------------------------------------------------------------------
reinit: System Name: Si bulk diamond
reinit: -----------------------------------------------------------------------
reinit: System Label: Si-diamond
reinit: -----------------------------------------------------------------------

initatom: Reading input for the pseudopotentials and atomic orbitals ----------
Species number:   1 Atomic number:   14 Label: Si

Ground state valence configuration (from tables):   3s02  3p02  3d00  4f00

---- Processing specs for species: Si
Reading pseudopotential information in unformatted form from:
  Si.vps

---- Pseudopotential check for Si

Pseudized shells:
3s( 2.00) rc: 1.23
3p( 2.00) rc: 1.43
Valence configuration for ps generation: (assumed as above)
For Si, standard SIESTA heuristics set lmxkb to 3
 (one more than the basis l, including polarization orbitals).
Use PS.lmax or PS.KBprojectors blocks to override.
Si pseudopotential only contains V_ls up to l=1 -- lmxkb reset.

<basis_specs>
===============================================================================
Si                   Z=  14    Mass=  28.090        Charge= 0.17977+309
Lmxo=2 Lmxkb= 1    BasisType=split      Semic=F
L=0  Nsemic=0  Cnfigmx=3
          i=1  nzeta=2  polorb=0  (3s)
            splnorm:   0.15000    
               vcte:    40.000    
               rinn:  -0.90000    
               qcoe:    0.0000    
               qyuk:    0.0000    
               qwid:   0.10000E-01
                rcs:    0.0000      0.0000    
            lambdas:    1.0000      1.0000    
L=1  Nsemic=0  Cnfigmx=3
          i=1  nzeta=2  polorb=1  (3p)  (to be polarized perturbatively)
            splnorm:   0.15000    
               vcte:    40.000    
               rinn:  -0.90000    
               qcoe:    0.0000    
               qyuk:    0.0000    
               qwid:   0.10000E-01
                rcs:    0.0000      0.0000    
            lambdas:    1.0000      1.0000    
L=2  Nsemic=0  Cnfigmx=3
          i=1  nzeta=0  polorb=0  (3d)  (perturbative polarization orbital) (from 3p)
-------------------------------------------------------------------------------
L=0  Nkbl=1  erefs: 0.17977+309
L=1  Nkbl=1  erefs: 0.17977+309
===============================================================================
</basis_specs>

Using PAO.SplitTailNorm
atom: Called for Si                    (Z =  14)
NOTE: Si pseudopotential has channels up to l= 1
NOTE: PAOs with higher l will be generated with V_local
Maximum radius (at nrval) set to   50.00000 8518

read_vps: Pseudopotential generation method:
read_vps: ATM4.2.7  Kerker                                  
Valence charge in pseudo generation:    4.00000

xc_check: Exchange-correlation functional:
xc_check: GGA Perdew, Burke & Ernzerhof 1996
V l=0 = -2*Zval/r beyond r=  2.8074
V l=1 = -2*Zval/r beyond r=  2.8074
All V_l potentials equal beyond r=  1.5163
This should be close to max(r_c) in ps generation
All pots = -2*Zval/r beyond r=  2.8074
Using large-core scheme (fit) for Vlocal

atom: Estimated core radius    2.80744

atom: Including non-local core corrections could be a good idea
Fit of Vlocal with continuous 2nd derivative
Fitting vlocal at       1.5209
Choosing vlocal chloc cutoff:  5726  3.054333
qtot up to nchloc:    3.99984030
atom: Maximum radius for chlocal:    3.05433
atom: Maximum radius for r*vlocal+2*Zval:    3.05433

KBgen: Kleinman-Bylander projectors: 
GHOST: No ghost state for L =  0
   l= 0   rc=  1.511703   el= -0.791527   Ekb=  6.361810   kbcos=  0.278083
GHOST: No ghost state for L =  1
   l= 1   rc=  1.575389   el= -0.300579   Ekb=  2.611741   kbcos=  0.260518

KBgen: Total number of Kleinman-Bylander projectors:   4
atom: -------------------------------------------------------------------------

atom: SANKEY-TYPE ORBITALS:
atom: Selected multiple-zeta basis: split     

SPLIT: Orbitals with angular momentum L= 0

SPLIT: Basis orbitals for state 3s

SPLIT: PAO cut-off radius determined from an
SPLIT: energy shift=  0.010000 Ry
Split based on tail norm

   izeta = 1
                 lambda =    1.000000
                     rc =    5.403143
                 energy =   -0.779945
                kinetic =    0.563858
    potential(screened) =   -1.343803
       potential(ionic) =   -3.794934

   izeta = 2
                 rmatch =    3.854490
              splitnorm =    0.150000
                 energy =   -0.529540
                kinetic =    1.167421
    potential(screened) =   -1.696961
       potential(ionic) =   -4.291182

SPLIT: Orbitals with angular momentum L= 1

SPLIT: Basis orbitals for state 3p

SPLIT: PAO cut-off radius determined from an
SPLIT: energy shift=  0.010000 Ry
Split based on tail norm

   izeta = 1
                 lambda =    1.000000
                     rc =    6.843982
                 energy =   -0.289102
                kinetic =    0.857285
    potential(screened) =   -1.146387
       potential(ionic) =   -3.385088

   izeta = 2
                 rmatch =    4.952104
              splitnorm =    0.150000
                 energy =   -0.182759
                kinetic =    1.296336
    potential(screened) =   -1.479095
       potential(ionic) =   -3.923275
*Note: V_local used for l= 2

** Using vlocal for PAOs with L= 2

POLgen: Perturbative polarization orbital with L=  2

POLgen: Polarization orbital for state 3p
*Note: V_local used for lpol= 2

** Using vlocal for PAOs with L= 2
Split based on tail norm

   izeta = 1
                     rc =    6.843982
                 energy =    0.369369
                kinetic =    1.362956
    potential(screened) =   -0.993588
       potential(ionic) =   -3.078590
atom: Total number of Sankey-type orbitals: 13

atm_pop: Valence configuration (for local Pseudopot. screening):
 3s( 2.00)                                                            
 3p( 2.00)                                                            
 3d( 0.00)                                                            
Vna: chval, zval:    4.00000   4.00000

Vna:  Cut-off radius for the neutral-atom potential:   6.843982

atom: _________________________________________________________________________

prinput: Basis input 

PAO.BasisType split     

%block ChemicalSpeciesLabel
    1   14 Si                      # Species index, atomic number, species label
%endblock ChemicalSpeciesLabel

%block PAO.Basis                 # Define Basis set
# WARNING: This information might be incomplete!
Si                    2                    # Species label, number of l-shells
 n=3   0   2                         # n, l, Nzeta 
   5.403      3.854   
   1.000      1.000   
 n=3   1   2 P   1                   # n, l, Nzeta, Polarization, NzetaPol
   6.844      4.952   
   1.000      1.000   
%endblock PAO.Basis

prinput: ----------------------------------------------------------------------

Dumping basis to NetCDF file Si.ion.nc
coor:   Atomic-coordinates input format  =     Fractional

siesta: Atomic coordinates (Bohr) and species
siesta:      3.30702   3.30702   3.30702  1        1
siesta:      0.00000   0.00000   0.00000  1        2

siesta: System type = bulk      

initatomlists: Number of atoms, orbitals, and projectors:      2    26     8

siesta: ******************** Simulation parameters ****************************
siesta:
siesta: The following are some of the parameters of the simulation.
siesta: A complete list of the parameters used, including default values,
siesta: can be found in file out.fdf
siesta:
redata: Spin configuration                          = none
redata: Number of spin components                   = 1
redata: Time-Reversal Symmetry                      = T
redata: Spin spiral                                 = F
redata: Long output                                 =   F
redata: Number of Atomic Species                    =        1
redata: Charge density info will appear in .RHO file
redata: Write Mulliken Pop.                         = NO
redata: Matel table size (NRTAB)                    =     1024
redata: Mesh Cutoff                                 =   300.0000 Ry
redata: Net charge of the system                    =     0.0000 |e|
redata: Min. number of SCF Iter                     =        0
redata: Max. number of SCF Iter                     =      300
redata: SCF convergence failure will abort job
redata: SCF mix quantity                            = Hamiltonian
redata: Mix DM or H after convergence               =   F
redata: Recompute H after scf cycle                 =   F
redata: Mix DM in first SCF step                    =   T
redata: Write Pulay info on disk                    =   F
redata: New DM Occupancy tolerance                  = 0.000000000001
redata: No kicks to SCF
redata: DM Mixing Weight for Kicks                  =     0.5000
redata: Require Harris convergence for SCF          =   F
redata: Harris energy tolerance for SCF             =     0.000100 eV
redata: Require DM convergence for SCF              =   T
redata: DM tolerance for SCF                        =     0.000100
redata: Require EDM convergence for SCF             =   F
redata: EDM tolerance for SCF                       =     0.001000 eV
redata: Require H convergence for SCF               =   T
redata: Hamiltonian tolerance for SCF               =     0.001000 eV
redata: Require (free) Energy convergence for SCF   =   F
redata: (free) Energy tolerance for SCF             =     0.000100 eV
redata: Using DFT-D3 dispersion                     =   F
redata: Using Saved Data (generic)                  =   F
redata: Use continuation files for DM               =   T
redata: Neglect nonoverlap interactions             =   F
redata: Method of Calculation                       = Diagonalization
redata: Electronic Temperature                      =   299.9863 K
redata: Fix the spin of the system                  =   F
redata: Max. number of TDED Iter                    =        1
redata: Number of TDED substeps                     =        3
redata: Dynamics option                             = CG coord. optimization
redata: Variable cell                               =   T
redata: Use continuation files for CG               =   F
redata: Max atomic displ per move                   =     0.1058 Ang
redata: Maximum number of optimization moves        =       30
redata: Force tolerance                             =     0.0010 eV/Ang
redata: Stress tolerance                            =     1.0000 GPa
mix.SCF: Pulay mixing                            = Pulay
mix.SCF:    Variant                              = stable
mix.SCF:    History steps                        = 2
mix.SCF:    Linear mixing weight                 =     0.250000
mix.SCF:    Mixing weight                        =     0.250000
mix.SCF:    SVD condition                        = 0.1000E-07
redata: Save all siesta data in one NC              =   F
redata: ***********************************************************************

%block SCF.Mixers
  Pulay
%endblock SCF.Mixers

%block SCF.Mixer.Pulay
  # Mixing method
  method pulay
  variant stable

  # Mixing options
  weight 0.2500
  weight.linear 0.2500
  history 2
%endblock SCF.Mixer.Pulay

DM_history_depth set to one: no extrapolation allowed by default for geometry relaxation
Size of DM history Fstack: 1
Total number of electrons:     8.000000
Total ionic charge:     8.000000

* ProcessorY, Blocksize:    2  14


* Orbital distribution balance (max,min):    14    12

k-point displ. along   1 input, could be:     0.00    0.50
k-point displ. along   2 input, could be:     0.00    0.50
k-point displ. along   3 input, could be:     0.00    0.50
 Kpoints in:           48 . Kpoints trimmed:           44

siesta: k-grid: Number of k-points = 44
siesta: k-points from Monkhorst-Pack grid
siesta: k-cutoff (effective) =     9.899 Ang
siesta: k-point supercell and displacements
siesta: k-grid:     4     0     0      0.000
siesta: k-grid:     0     4     0      0.000
siesta: k-grid:     0     0     4      0.000

diag: Algorithm                                     = D&C
diag: Parallel over k                               =   F
diag: Use parallel 2D distribution                  =   F
diag: Parallel block-size                           = 14
diag: Parallel distribution                         =     1 x     2
diag: Used triangular part                          = Lower
diag: Absolute tolerance                            =  0.100E-15
diag: Orthogonalization factor                      =  0.100E-05
diag: Memory factor                                 =  1.0000

superc: Internal auxiliary supercell:     3 x     3 x     3  =      27
superc: Number of atoms, orbitals, and projectors:     54    702    216


ts: **************************************************************
ts: Save H and S matrices                           =    F
ts: Save DM and EDM matrices                        =    F
ts: Only save the overlap matrix S                  =    F
ts: **************************************************************

************************ Begin: TS CHECKS AND WARNINGS ************************
************************ End: TS CHECKS AND WARNINGS **************************


                     ====================================
                        Begin CG opt. move =      0
                     ====================================

superc: Internal auxiliary supercell:     3 x     3 x     3  =      27
superc: Number of atoms, orbitals, and projectors:     54    702    216

outcell: Unit cell vectors (Ang):
        0.000000    3.500000    3.500000
        3.500000    0.000000    3.500000
        3.500000    3.500000    0.000000

outcell: Cell vector modules (Ang)   :    4.949747    4.949747    4.949747
outcell: Cell angles (23,13,12) (deg):     60.0000     60.0000     60.0000
outcell: Cell volume (Ang**3)        :     85.7500
<dSpData1D:S at geom step 0
  <sparsity:sparsity for geom step 0
    nrows_g=26 nrows=14 sparsity=7.3817 nnzs=4990, refcount: 7>
  <dData1D:(new from dSpData1D) n=4990, refcount: 1>
refcount: 1>
new_DM -- step:     1
Initializing Density Matrix...

Attempting to read DM from file... Failed...
DM filled with atomic data:
<dSpData2D:DM initialized from atoms
  <sparsity:sparsity for geom step 0
    nrows_g=26 nrows=14 sparsity=7.3817 nnzs=4990, refcount: 8>
  <dData2D:DM n=4990 m=1, refcount: 1>
refcount: 1>
No. of atoms with KB's overlaping orbs in proc 0. Max # of overlaps:       8      61

InitMesh: MESH = 48 x 48 x 48 = 110592
InitMesh: Mesh cutoff (required, used) =   300.000   389.861 Ry
New grid distribution [1]: sub = 2
New grid distribution [2]: sub = 2
New grid distribution [3]: sub = 2
Setting up quadratic distribution...

stepf: Fermi-Dirac step function

siesta: Program's energy decomposition (eV):
siesta: Ebs     =       -64.741104
siesta: Eions   =       444.480597
siesta: Ena     =       181.138495
siesta: Ekin    =        67.202423
siesta: Enl     =        33.658932
siesta: Eso     =         0.000000
siesta: Edftu   =         0.000000
siesta: DEna    =         8.613471
siesta: DUscf   =         0.284205
siesta: DUext   =         0.000000
siesta: Ex      =       -49.972130
siesta: Ec      =        -6.974049
siesta: Exc     =       -56.946179
siesta: EbV     =         0.000000
siesta: eta*DQ  =         0.000000
siesta: Emadel  =         0.000000
siesta: Emeta   =         0.000000
siesta: Emolmec =         0.000000
siesta: Ekinion =         0.000000
siesta: Eharris =      -215.520629
siesta: Etot    =      -210.529251
siesta: FreeEng =      -210.534400

        iscf     Eharris(eV)        E_KS(eV)     FreeEng(eV)     dDmax    Ef(eV) dHmax(eV)
   scf:    1     -215.520629     -210.529251     -210.534400  0.708857 -4.460084  0.472572
timer: Routine,Calls,Time,% = IterSCF        1       0.350  18.02
   scf:    2     -210.540163     -210.534795     -210.539840  0.009420 -4.534378  0.324604
   scf:    3     -210.544746     -210.540183     -210.544882  0.020102 -4.692374  0.005385
   scf:    4     -210.540197     -210.540190     -210.544886  0.000237 -4.691714  0.004321
   scf:    5     -210.540214     -210.540203     -210.544891  0.000641 -4.689606  0.001061
   scf:    6     -210.540203     -210.540203     -210.544891  0.000029 -4.689237  0.000798

SCF Convergence by DM+H criterion
max |DM_out - DM_in|         :     0.0000287431
max |H_out - H_in|      (eV) :     0.0007984476
SCF cycle converged after 6 iterations

Using DM_out to compute the final energy and forces
No. of atoms with KB's overlaping orbs in proc 0. Max # of overlaps:       8      61

siesta: E_KS(eV) =             -210.5402

siesta: E_KS - E_eggbox =      -210.5402

siesta: Atomic forces (eV/Ang):
----------------------------------------
   Tot    0.000000   -0.000000   -0.000000
----------------------------------------
   Max    0.000013
   Res    0.000013    sqrt( Sum f_i^2 / 3N )
----------------------------------------
   Max    0.000013    constrained

Stress tensor Voigt[x,y,z,yz,xz,xy] (kbar):      113.84      113.84      113.84        0.00        0.00        0.00
(Free)E + p*V (eV/cell)     -216.6379
Target enthalpy (eV/cell)     -210.5449

siesta: Stress tensor (static) (eV/Ang**3):
         0.071056    0.000002    0.000002
         0.000002    0.071056    0.000002
         0.000002    0.000002    0.071056

siesta: Pressure (static):       -113.84393799  kBar

siesta: Stress tensor (total) (eV/Ang**3):
         0.071056    0.000002    0.000002
         0.000002    0.071056    0.000002
         0.000002    0.000002    0.071056

siesta: Pressure (total):       -113.84393799  kBar

cgvc: No target stress found, assuming hydrostatic MD.TargetPressure.

cgvc: Target stress (kBar)
cgvc:        -0.000       0.000       0.000
cgvc:         0.000      -0.000       0.000
cgvc:         0.000       0.000      -0.000

                     ====================================
                        Begin CG opt. move =      1
                     ====================================
k-point displ. along   1 input, could be:     0.00    0.50
k-point displ. along   2 input, could be:     0.00    0.50
k-point displ. along   3 input, could be:     0.00    0.50
 Kpoints in:           48 . Kpoints trimmed:           44

siesta: k-grid: Number of k-points = 44
siesta: k-points from Monkhorst-Pack grid
siesta: k-cutoff (effective) =     9.779 Ang
siesta: k-point supercell and displacements
siesta: k-grid:     4     0     0      0.000
siesta: k-grid:     0     4     0      0.000
siesta: k-grid:     0     0     4      0.000

superc: Internal auxiliary supercell:     3 x     3 x     3  =      27
superc: Number of atoms, orbitals, and projectors:     54    702    216

outcell: Unit cell vectors (Ang):
       -0.000002    3.457226    3.457226
        3.457226   -0.000002    3.457226
        3.457226    3.457226   -0.000002

outcell: Cell vector modules (Ang)   :    4.889256    4.889256    4.889256
outcell: Cell angles (23,13,12) (deg):     60.0000     60.0000     60.0000
outcell: Cell volume (Ang**3)        :     82.6445
<dSpData1D:S at geom step 1
  <sparsity:sparsity for geom step 1
    nrows_g=26 nrows=14 sparsity=7.4349 nnzs=5026, refcount: 7>
  <dData1D:(new from dSpData1D) n=5026, refcount: 1>
refcount: 1>
new_DM -- step:     2
Re-using DM from previous geometries...
Number of DMs in history: 1
 DM extrapolation coefficients: 
1   1.00000
New DM after history re-use:
<dSpData2D:SpM extrapolated using coords
  <sparsity:sparsity for geom step 1
    nrows_g=26 nrows=14 sparsity=7.4349 nnzs=5026, refcount: 9>
  <dData2D:(temp array for extrapolation) n=5026 m=1, refcount: 1>
refcount: 1>
Note: For starting DM, Qtot, Tr[D*S] =          8.00000000          8.07729826
No. of atoms with KB's overlaping orbs in proc 0. Max # of overlaps:       8      61

InitMesh: MESH = 48 x 48 x 48 = 110592
InitMesh: Mesh cutoff (required, used) =   300.000   399.567 Ry
New grid distribution [1]: sub = 2
New grid distribution [2]: sub = 2
New grid distribution [3]: sub = 2
Setting up quadratic distribution...

        iscf     Eharris(eV)        E_KS(eV)     FreeEng(eV)     dDmax    Ef(eV) dHmax(eV)
   scf:    1     -210.713343     -210.766024     -210.769227  0.025556 -4.687231  0.027280
   scf:    2     -210.765980     -210.766005     -210.769244  0.001394 -4.667458  0.004714
   scf:    3     -210.766017     -210.766011     -210.769245  0.000216 -4.670252  0.000159
   scf:    4     -210.766011     -210.766011     -210.769245  0.000012 -4.670212  0.000118

SCF Convergence by DM+H criterion
max |DM_out - DM_in|         :     0.0000123781
max |H_out - H_in|      (eV) :     0.0001182507
SCF cycle converged after 4 iterations

Using DM_out to compute the final energy and forces
No. of atoms with KB's overlaping orbs in proc 0. Max # of overlaps:       8      61

siesta: E_KS(eV) =             -210.7660

siesta: Atomic forces (eV/Ang):
----------------------------------------
   Tot   -0.000000    0.000000   -0.000000
----------------------------------------
   Max    0.000004
   Res    0.000004    sqrt( Sum f_i^2 / 3N )
----------------------------------------
   Max    0.000004    constrained

Stress tensor Voigt[x,y,z,yz,xz,xy] (kbar):      117.65      117.65      117.65        0.00        0.00        0.00
(Free)E + p*V (eV/cell)     -216.8382
Target enthalpy (eV/cell)     -210.7692

siesta: Stress tensor (static) (eV/Ang**3):
         0.073434    0.000002    0.000002
         0.000002    0.073434    0.000002
         0.000002    0.000002    0.073434

siesta: Pressure (static):       -117.65436949  kBar

siesta: Stress tensor (total) (eV/Ang**3):
         0.073434    0.000002    0.000002
         0.000002    0.073434    0.000002
         0.000002    0.000002    0.073434

siesta: Pressure (total):       -117.65436949  kBar

                     ====================================
                        Begin CG opt. move =      2
                     ====================================
k-point displ. along   1 input, could be:     0.00    0.50
k-point displ. along   2 input, could be:     0.00    0.50
k-point displ. along   3 input, could be:     0.00    0.50
 Kpoints in:           48 . Kpoints trimmed:           44

siesta: k-grid: Number of k-points = 44
siesta: k-points from Monkhorst-Pack grid
siesta: k-cutoff (effective) =     9.585 Ang
siesta: k-point supercell and displacements
siesta: k-grid:     4     0     0      0.000
siesta: k-grid:     0     4     0      0.000
siesta: k-grid:     0     0     4      0.000

superc: Internal auxiliary supercell:     3 x     3 x     3  =      27
superc: Number of atoms, orbitals, and projectors:     54    702    216

outcell: Unit cell vectors (Ang):
       -0.000005    3.388788    3.388788
        3.388788   -0.000005    3.388788
        3.388788    3.388788   -0.000005

outcell: Cell vector modules (Ang)   :    4.792470    4.792470    4.792470
outcell: Cell angles (23,13,12) (deg):     60.0001     60.0001     60.0001
outcell: Cell volume (Ang**3)        :     77.8331
<dSpData1D:S at geom step 2
  <sparsity:sparsity for geom step 2
    nrows_g=26 nrows=14 sparsity=7.7544 nnzs=5242, refcount: 7>
  <dData1D:(new from dSpData1D) n=5242, refcount: 1>
refcount: 1>
new_DM -- step:     3
Re-using DM from previous geometries...
Number of DMs in history: 1
 DM extrapolation coefficients: 
1   1.00000
New DM after history re-use:
<dSpData2D:SpM extrapolated using coords
  <sparsity:sparsity for geom step 2
    nrows_g=26 nrows=14 sparsity=7.7544 nnzs=5242, refcount: 9>
  <dData2D:(temp array for extrapolation) n=5242 m=1, refcount: 1>
refcount: 1>
Note: For starting DM, Qtot, Tr[D*S] =          8.00000000          8.12600958
No. of atoms with KB's overlaping orbs in proc 0. Max # of overlaps:       8      61

InitMesh: MESH = 48 x 48 x 48 = 110592
InitMesh: Mesh cutoff (required, used) =   300.000   415.868 Ry
New grid distribution [1]: sub = 2
New grid distribution [2]: sub = 2
New grid distribution [3]: sub = 2
Setting up quadratic distribution...

        iscf     Eharris(eV)        E_KS(eV)     FreeEng(eV)     dDmax    Ef(eV) dHmax(eV)
   scf:    1     -211.025014     -211.128132     -211.130422  0.036609 -4.627746  0.039575
   scf:    2     -211.128196     -211.128169     -211.130462  0.002035 -4.599630  0.006837
   scf:    3     -211.128173     -211.128171     -211.130463  0.000312 -4.603622  0.000198
   scf:    4     -211.128171     -211.128171     -211.130463  0.000017 -4.603576  0.000147

SCF Convergence by DM+H criterion
max |DM_out - DM_in|         :     0.0000170675
max |H_out - H_in|      (eV) :     0.0001473741
SCF cycle converged after 4 iterations

Using DM_out to compute the final energy and forces
No. of atoms with KB's overlaping orbs in proc 0. Max # of overlaps:       8      61

siesta: E_KS(eV) =             -211.1282

siesta: Atomic forces (eV/Ang):
----------------------------------------
   Tot   -0.000000    0.000000    0.000000
----------------------------------------
   Max    0.000020
   Res    0.000020    sqrt( Sum f_i^2 / 3N )
----------------------------------------
   Max    0.000020    constrained

Stress tensor Voigt[x,y,z,yz,xz,xy] (kbar):      122.72      122.72      122.72        0.00        0.00        0.00
(Free)E + p*V (eV/cell)     -217.0923
Target enthalpy (eV/cell)     -211.1305

siesta: Stress tensor (static) (eV/Ang**3):
         0.076597    0.000002    0.000002
         0.000002    0.076597    0.000002
         0.000002    0.000002    0.076597

siesta: Pressure (static):       -122.72254178  kBar

siesta: Stress tensor (total) (eV/Ang**3):
         0.076597    0.000002    0.000002
         0.000002    0.076597    0.000002
         0.000002    0.000002    0.076597

siesta: Pressure (total):       -122.72254178  kBar

                     ====================================
                        Begin CG opt. move =      3
                     ====================================
k-point displ. along   1 input, could be:     0.00    0.50
k-point displ. along   2 input, could be:     0.00    0.50
k-point displ. along   3 input, could be:     0.00    0.50
 Kpoints in:           48 . Kpoints trimmed:           44

siesta: k-grid: Number of k-points = 44
siesta: k-points from Monkhorst-Pack grid
siesta: k-cutoff (effective) =     9.375 Ang
siesta: k-point supercell and displacements
siesta: k-grid:     4     0     0      0.000
siesta: k-grid:     0     4     0      0.000
siesta: k-grid:     0     0     4      0.000

superc: Internal auxiliary supercell:     5 x     5 x     5  =     125
superc: Number of atoms, orbitals, and projectors:    250   3250   1000

outcell: Unit cell vectors (Ang):
       -0.000009    3.314701    3.314701
        3.314701   -0.000009    3.314701
        3.314701    3.314701   -0.000009

outcell: Cell vector modules (Ang)   :    4.687696    4.687696    4.687696
outcell: Cell angles (23,13,12) (deg):     60.0002     60.0002     60.0002
outcell: Cell volume (Ang**3)        :     72.8392
<dSpData1D:S at geom step 3
  <sparsity:sparsity for geom step 3
    nrows_g=26 nrows=14 sparsity=9.0148 nnzs=6094, refcount: 7>
  <dData1D:(new from dSpData1D) n=6094, refcount: 1>
refcount: 1>
new_DM -- step:     4
Re-using DM from previous geometries...
Number of DMs in history: 1
 DM extrapolation coefficients: 
1   1.00000
New DM after history re-use:
<dSpData2D:SpM extrapolated using coords
  <sparsity:sparsity for geom step 3
    nrows_g=26 nrows=14 sparsity=9.0148 nnzs=6094, refcount: 9>
  <dData2D:(temp array for extrapolation) n=6094 m=1, refcount: 1>
refcount: 1>
Note: For starting DM, Qtot, Tr[D*S] =          8.00000000          8.13973686
No. of atoms with KB's overlaping orbs in proc 0. Max # of overlaps:       8      65

InitMesh: MESH = 40 x 40 x 40 = 64000
InitMesh: Mesh cutoff (required, used) =   300.000   301.851 Ry
New grid distribution [1]: sub = 2
New grid distribution [2]: sub = 2
New grid distribution [3]: sub = 2
Setting up quadratic distribution...

        iscf     Eharris(eV)        E_KS(eV)     FreeEng(eV)     dDmax    Ef(eV) dHmax(eV)
   scf:    1     -211.375888     -211.517401     -211.519932  0.041325 -4.529490  0.045118
   scf:    2     -211.517557     -211.517485     -211.519985  0.002248 -4.496817  0.007759
   scf:    3     -211.517480     -211.517483     -211.519987  0.000345 -4.501451  0.000212
   scf:    4     -211.517483     -211.517483     -211.519988  0.000021 -4.501400  0.000159

SCF Convergence by DM+H criterion
max |DM_out - DM_in|         :     0.0000209039
max |H_out - H_in|      (eV) :     0.0001585145
SCF cycle converged after 4 iterations

Using DM_out to compute the final energy and forces
No. of atoms with KB's overlaping orbs in proc 0. Max # of overlaps:       8      65

siesta: E_KS(eV) =             -211.5175

siesta: Atomic forces (eV/Ang):
----------------------------------------
   Tot   -0.000000    0.000000    0.000000
----------------------------------------
   Max    0.000034
   Res    0.000034    sqrt( Sum f_i^2 / 3N )
----------------------------------------
   Max    0.000034    constrained

Stress tensor Voigt[x,y,z,yz,xz,xy] (kbar):      127.36      127.36      127.36        0.00        0.00        0.00
(Free)E + p*V (eV/cell)     -217.3103
Target enthalpy (eV/cell)     -211.5200

siesta: Stress tensor (static) (eV/Ang**3):
         0.079494    0.000003    0.000003
         0.000003    0.079494    0.000003
         0.000003    0.000003    0.079494

siesta: Pressure (static):       -127.36419595  kBar

siesta: Stress tensor (total) (eV/Ang**3):
         0.079494    0.000003    0.000003
         0.000003    0.079494    0.000003
         0.000003    0.000003    0.079494

siesta: Pressure (total):       -127.36419595  kBar

                     ====================================
                        Begin CG opt. move =      4
                     ====================================
k-point displ. along   1 input, could be:     0.00    0.50
k-point displ. along   2 input, could be:     0.00    0.50
k-point displ. along   3 input, could be:     0.00    0.50
 Kpoints in:           48 . Kpoints trimmed:           44

siesta: k-grid: Number of k-points = 44
siesta: k-points from Monkhorst-Pack grid
siesta: k-cutoff (effective) =     9.166 Ang
siesta: k-point supercell and displacements
siesta: k-grid:     4     0     0      0.000
siesta: k-grid:     0     4     0      0.000
siesta: k-grid:     0     0     4      0.000

superc: Internal auxiliary supercell:     5 x     5 x     5  =     125
superc: Number of atoms, orbitals, and projectors:    250   3250   1000

outcell: Unit cell vectors (Ang):
       -0.000012    3.240615    3.240615
        3.240615   -0.000012    3.240615
        3.240615    3.240615   -0.000012

outcell: Cell vector modules (Ang)   :    4.582921    4.582921    4.582921
outcell: Cell angles (23,13,12) (deg):     60.0003     60.0003     60.0003
outcell: Cell volume (Ang**3)        :     68.0636
<dSpData1D:S at geom step 4
  <sparsity:sparsity for geom step 4
    nrows_g=26 nrows=14 sparsity=9.1746 nnzs=6202, refcount: 7>
  <dData1D:(new from dSpData1D) n=6202, refcount: 1>
refcount: 1>
new_DM -- step:     5
Re-using DM from previous geometries...
Number of DMs in history: 1
 DM extrapolation coefficients: 
1   1.00000
New DM after history re-use:
<dSpData2D:SpM extrapolated using coords
  <sparsity:sparsity for geom step 4
    nrows_g=26 nrows=14 sparsity=9.1746 nnzs=6202, refcount: 9>
  <dData2D:(temp array for extrapolation) n=6202 m=1, refcount: 1>
refcount: 1>
Note: For starting DM, Qtot, Tr[D*S] =          8.00000000          8.14317766
No. of atoms with KB's overlaping orbs in proc 0. Max # of overlaps:       8      65

InitMesh: MESH = 40 x 40 x 40 = 64000
InitMesh: Mesh cutoff (required, used) =   300.000   315.810 Ry
New grid distribution [1]: sub = 2
New grid distribution [2]: sub = 2
New grid distribution [3]: sub = 2
Setting up quadratic distribution...

        iscf     Eharris(eV)        E_KS(eV)     FreeEng(eV)     dDmax    Ef(eV) dHmax(eV)
   scf:    1     -211.731869     -211.903328     -211.906386  0.060114 -4.443311  0.062017
   scf:    2     -211.903352     -211.903353     -211.906487  0.002879 -4.394137  0.010498
   scf:    3     -211.903383     -211.903368     -211.906491  0.000447 -4.401021  0.000377
   scf:    4     -211.903369     -211.903369     -211.906492  0.000034 -4.400932  0.000283

SCF Convergence by DM+H criterion
max |DM_out - DM_in|         :     0.0000344176
max |H_out - H_in|      (eV) :     0.0002826800
SCF cycle converged after 4 iterations

Using DM_out to compute the final energy and forces
No. of atoms with KB's overlaping orbs in proc 0. Max # of overlaps:       8      65

siesta: E_KS(eV) =             -211.9034

siesta: Atomic forces (eV/Ang):
----------------------------------------
   Tot   -0.000000    0.000000    0.000000
----------------------------------------
   Max    0.000070
   Res    0.000070    sqrt( Sum f_i^2 / 3N )
----------------------------------------
   Max    0.000070    constrained

Stress tensor Voigt[x,y,z,yz,xz,xy] (kbar):      132.31      132.31      132.31        0.00        0.00        0.00
(Free)E + p*V (eV/cell)     -217.5271
Target enthalpy (eV/cell)     -211.9065

siesta: Stress tensor (static) (eV/Ang**3):
         0.082579    0.000003    0.000003
         0.000003    0.082579    0.000003
         0.000003    0.000003    0.082579

siesta: Pressure (static):       -132.30599053  kBar

siesta: Stress tensor (total) (eV/Ang**3):
         0.082579    0.000003    0.000003
         0.000003    0.082579    0.000003
         0.000003    0.000003    0.082579

siesta: Pressure (total):       -132.30599053  kBar

                     ====================================
                        Begin CG opt. move =      5
                     ====================================
k-point displ. along   1 input, could be:     0.00    0.50
k-point displ. along   2 input, could be:     0.00    0.50
k-point displ. along   3 input, could be:     0.00    0.50
 Kpoints in:           48 . Kpoints trimmed:           44

siesta: k-grid: Number of k-points = 44
siesta: k-points from Monkhorst-Pack grid
siesta: k-cutoff (effective) =     8.956 Ang
siesta: k-point supercell and displacements
siesta: k-grid:     4     0     0      0.000
siesta: k-grid:     0     4     0      0.000
siesta: k-grid:     0     0     4      0.000

superc: Internal auxiliary supercell:     5 x     5 x     5  =     125
superc: Number of atoms, orbitals, and projectors:    250   3250   1000

outcell: Unit cell vectors (Ang):
       -0.000016    3.166528    3.166528
        3.166528   -0.000016    3.166528
        3.166528    3.166528   -0.000016

outcell: Cell vector modules (Ang)   :    4.478147    4.478147    4.478147
outcell: Cell angles (23,13,12) (deg):     60.0003     60.0003     60.0003
outcell: Cell volume (Ang**3)        :     63.5014
<dSpData1D:S at geom step 5
  <sparsity:sparsity for geom step 5
    nrows_g=26 nrows=14 sparsity=9.3876 nnzs=6346, refcount: 7>
  <dData1D:(new from dSpData1D) n=6346, refcount: 1>
refcount: 1>
new_DM -- step:     6
Re-using DM from previous geometries...
Number of DMs in history: 1
 DM extrapolation coefficients: 
1   1.00000
New DM after history re-use:
<dSpData2D:SpM extrapolated using coords
  <sparsity:sparsity for geom step 5
    nrows_g=26 nrows=14 sparsity=9.3876 nnzs=6346, refcount: 9>
  <dData2D:(temp array for extrapolation) n=6346 m=1, refcount: 1>
refcount: 1>
Note: For starting DM, Qtot, Tr[D*S] =          8.00000000          8.14680323
No. of atoms with KB's overlaping orbs in proc 0. Max # of overlaps:       8      65

InitMesh: MESH = 40 x 40 x 40 = 64000
InitMesh: Mesh cutoff (required, used) =   300.000   330.760 Ry
New grid distribution [1]: sub = 2
New grid distribution [2]: sub = 2
New grid distribution [3]: sub = 2
Setting up quadratic distribution...

        iscf     Eharris(eV)        E_KS(eV)     FreeEng(eV)     dDmax    Ef(eV) dHmax(eV)
   scf:    1     -212.087506     -212.286593     -212.288159  0.059624 -4.416220  0.056712
   scf:    2     -212.286738     -212.286675     -212.288247  0.002507 -4.368307  0.009000
   scf:    3     -212.286683     -212.286679     -212.288250  0.000370 -4.374673  0.000355
   scf:    4     -212.286679     -212.286679     -212.288250  0.000036 -4.374615  0.000268

SCF Convergence by DM+H criterion
max |DM_out - DM_in|         :     0.0000364733
max |H_out - H_in|      (eV) :     0.0002680855
SCF cycle converged after 4 iterations

Using DM_out to compute the final energy and forces
No. of atoms with KB's overlaping orbs in proc 0. Max # of overlaps:       8      65

siesta: E_KS(eV) =             -212.2867

siesta: Atomic forces (eV/Ang):
----------------------------------------
   Tot   -0.000000   -0.000000    0.000000
----------------------------------------
   Max    0.000054
   Res    0.000054    sqrt( Sum f_i^2 / 3N )
----------------------------------------
   Max    0.000054    constrained

Stress tensor Voigt[x,y,z,yz,xz,xy] (kbar):      134.81      134.81      134.81        0.00        0.00        0.00
(Free)E + p*V (eV/cell)     -217.6315
Target enthalpy (eV/cell)     -212.2882

siesta: Stress tensor (static) (eV/Ang**3):
         0.084145    0.000002    0.000002
         0.000002    0.084145    0.000002
         0.000002    0.000002    0.084145

siesta: Pressure (static):       -134.81449197  kBar

siesta: Stress tensor (total) (eV/Ang**3):
         0.084145    0.000002    0.000002
         0.000002    0.084145    0.000002
         0.000002    0.000002    0.084145

siesta: Pressure (total):       -134.81449197  kBar

                     ====================================
                        Begin CG opt. move =      6
                     ====================================
k-point displ. along   1 input, could be:     0.00    0.50
k-point displ. along   2 input, could be:     0.00    0.50
k-point displ. along   3 input, could be:     0.00    0.50
 Kpoints in:           48 . Kpoints trimmed:           44

siesta: k-grid: Number of k-points = 44
siesta: k-points from Monkhorst-Pack grid
siesta: k-cutoff (effective) =     8.747 Ang
siesta: k-point supercell and displacements
siesta: k-grid:     4     0     0      0.000
siesta: k-grid:     0     4     0      0.000
siesta: k-grid:     0     0     4      0.000

superc: Internal auxiliary supercell:     5 x     5 x     5  =     125
superc: Number of atoms, orbitals, and projectors:    250   3250   1000

outcell: Unit cell vectors (Ang):
       -0.000019    3.092442    3.092442
        3.092442   -0.000019    3.092442
        3.092442    3.092442   -0.000019

outcell: Cell vector modules (Ang)   :    4.373373    4.373373    4.373373
outcell: Cell angles (23,13,12) (deg):     60.0004     60.0004     60.0004
outcell: Cell volume (Ang**3)        :     59.1478
<dSpData1D:S at geom step 6
  <sparsity:sparsity for geom step 6
    nrows_g=26 nrows=14 sparsity=14.9438 nnzs=10102, refcount: 7>
  <dData1D:(new from dSpData1D) n=10102, refcount: 1>
refcount: 1>
new_DM -- step:     7
Re-using DM from previous geometries...
Number of DMs in history: 1
 DM extrapolation coefficients: 
1   1.00000
New DM after history re-use:
<dSpData2D:SpM extrapolated using coords
  <sparsity:sparsity for geom step 6
    nrows_g=26 nrows=14 sparsity=14.9438 nnzs=10102, refcount: 9>
  <dData2D:(temp array for extrapolation) n=10102 m=1, refcount: 1>
refcount: 1>
Note: For starting DM, Qtot, Tr[D*S] =          8.00000000          8.15072267
No. of atoms with KB's overlaping orbs in proc 0. Max # of overlaps:      17     161

InitMesh: MESH = 40 x 40 x 40 = 64000
InitMesh: Mesh cutoff (required, used) =   300.000   346.797 Ry
New grid distribution [1]: sub = 2
New grid distribution [2]: sub = 2
New grid distribution [3]: sub = 2
Setting up quadratic distribution...

        iscf     Eharris(eV)        E_KS(eV)     FreeEng(eV)     dDmax    Ef(eV) dHmax(eV)
   scf:    1     -212.416377     -212.650489     -212.652032  0.055992 -4.419562  0.051058
   scf:    2     -212.650625     -212.650566     -212.652108  0.002416 -4.375735  0.008200
   scf:    3     -212.650571     -212.650569     -212.652111  0.000325 -4.381640  0.000292
   scf:    4     -212.650569     -212.650569     -212.652111  0.000029 -4.381595  0.000221

SCF Convergence by DM+H criterion
max |DM_out - DM_in|         :     0.0000294534
max |H_out - H_in|      (eV) :     0.0002212738
SCF cycle converged after 4 iterations

Using DM_out to compute the final energy and forces
No. of atoms with KB's overlaping orbs in proc 0. Max # of overlaps:      17     161

siesta: E_KS(eV) =             -212.6506

siesta: Atomic forces (eV/Ang):
----------------------------------------
   Tot   -0.000000    0.000000   -0.000000
----------------------------------------
   Max    0.000043
   Res    0.000043    sqrt( Sum f_i^2 / 3N )
----------------------------------------
   Max    0.000043    constrained

Stress tensor Voigt[x,y,z,yz,xz,xy] (kbar):      132.02      132.02      132.02        0.00        0.00        0.00
(Free)E + p*V (eV/cell)     -217.5260
Target enthalpy (eV/cell)     -212.6521

siesta: Stress tensor (static) (eV/Ang**3):
         0.082401    0.000001    0.000001
         0.000001    0.082401    0.000001
         0.000001    0.000001    0.082401

siesta: Pressure (static):       -132.02102896  kBar

siesta: Stress tensor (total) (eV/Ang**3):
         0.082401    0.000001    0.000001
         0.000001    0.082401    0.000001
         0.000001    0.000001    0.082401

siesta: Pressure (total):       -132.02102896  kBar

                     ====================================
                        Begin CG opt. move =      7
                     ====================================
k-point displ. along   1 input, could be:     0.00    0.50
k-point displ. along   2 input, could be:     0.00    0.50
k-point displ. along   3 input, could be:     0.00    0.50
 Kpoints in:           48 . Kpoints trimmed:           44

siesta: k-grid: Number of k-points = 44
siesta: k-points from Monkhorst-Pack grid
siesta: k-cutoff (effective) =     8.537 Ang
siesta: k-point supercell and displacements
siesta: k-grid:     4     0     0      0.000
siesta: k-grid:     0     4     0      0.000
siesta: k-grid:     0     0     4      0.000

superc: Internal auxiliary supercell:     5 x     5 x     5  =     125
superc: Number of atoms, orbitals, and projectors:    250   3250   1000

outcell: Unit cell vectors (Ang):
       -0.000023    3.018355    3.018355
        3.018355   -0.000023    3.018355
        3.018355    3.018355   -0.000023

outcell: Cell vector modules (Ang)   :    4.268599    4.268599    4.268599
outcell: Cell angles (23,13,12) (deg):     60.0005     60.0005     60.0005
outcell: Cell volume (Ang**3)        :     54.9979
<dSpData1D:S at geom step 7
  <sparsity:sparsity for geom step 7
    nrows_g=26 nrows=14 sparsity=14.9438 nnzs=10102, refcount: 7>
  <dData1D:(new from dSpData1D) n=10102, refcount: 1>
refcount: 1>
new_DM -- step:     8
Re-using DM from previous geometries...
Number of DMs in history: 1
 DM extrapolation coefficients: 
1   1.00000
New DM after history re-use:
<dSpData2D:SpM extrapolated using coords
  <sparsity:sparsity for geom step 7
    nrows_g=26 nrows=14 sparsity=14.9438 nnzs=10102, refcount: 9>
  <dData2D:(temp array for extrapolation) n=10102 m=1, refcount: 1>
refcount: 1>
Note: For starting DM, Qtot, Tr[D*S] =          8.00000000          8.15440981
No. of atoms with KB's overlaping orbs in proc 0. Max # of overlaps:      17     161

InitMesh: MESH = 40 x 40 x 40 = 64000
InitMesh: Mesh cutoff (required, used) =   300.000   364.030 Ry
New grid distribution [1]: sub = 2
New grid distribution [2]: sub = 2
New grid distribution [3]: sub = 2
Setting up quadratic distribution...

        iscf     Eharris(eV)        E_KS(eV)     FreeEng(eV)     dDmax    Ef(eV) dHmax(eV)
   scf:    1     -212.723614     -212.987369     -212.987651  0.104893 -4.329412  0.046962
   scf:    2     -212.987505     -212.987443     -212.987713  0.002930 -4.286207  0.006841
   scf:    3     -212.987443     -212.987443     -212.987715  0.000315 -4.291498  0.000392
   scf:    4     -212.987443     -212.987443     -212.987715  0.000034 -4.291485  0.000298

SCF Convergence by DM+H criterion
max |DM_out - DM_in|         :     0.0000344875
max |H_out - H_in|      (eV) :     0.0002981482
SCF cycle converged after 4 iterations

Using DM_out to compute the final energy and forces
No. of atoms with KB's overlaping orbs in proc 0. Max # of overlaps:      17     161

siesta: E_KS(eV) =             -212.9874

siesta: Atomic forces (eV/Ang):
----------------------------------------
   Tot    0.000000    0.000000    0.000000
----------------------------------------
   Max    0.000201
   Res    0.000201    sqrt( Sum f_i^2 / 3N )
----------------------------------------
   Max    0.000201    constrained

Stress tensor Voigt[x,y,z,yz,xz,xy] (kbar):      129.38      129.38      129.38       -0.00       -0.00       -0.00
(Free)E + p*V (eV/cell)     -217.4290
Target enthalpy (eV/cell)     -212.9877

siesta: Stress tensor (static) (eV/Ang**3):
         0.080754   -0.000000   -0.000000
        -0.000000    0.080754   -0.000000
        -0.000000   -0.000000    0.080754

siesta: Pressure (static):       -129.38152720  kBar

siesta: Stress tensor (total) (eV/Ang**3):
         0.080754   -0.000000   -0.000000
        -0.000000    0.080754   -0.000000
        -0.000000   -0.000000    0.080754

siesta: Pressure (total):       -129.38152720  kBar

                     ====================================
                        Begin CG opt. move =      8
                     ====================================
k-point displ. along   1 input, could be:     0.00    0.50
k-point displ. along   2 input, could be:     0.00    0.50
k-point displ. along   3 input, could be:     0.00    0.50
 Kpoints in:           48 . Kpoints trimmed:           44

siesta: k-grid: Number of k-points = 44
siesta: k-points from Monkhorst-Pack grid
siesta: k-cutoff (effective) =     8.328 Ang
siesta: k-point supercell and displacements
siesta: k-grid:     4     0     0      0.000
siesta: k-grid:     0     4     0      0.000
siesta: k-grid:     0     0     4      0.000

superc: Internal auxiliary supercell:     5 x     5 x     5  =     125
superc: Number of atoms, orbitals, and projectors:    250   3250   1000

outcell: Unit cell vectors (Ang):
       -0.000026    2.944269    2.944269
        2.944269   -0.000026    2.944269
        2.944269    2.944269   -0.000026

outcell: Cell vector modules (Ang)   :    4.163825    4.163825    4.163825
outcell: Cell angles (23,13,12) (deg):     60.0006     60.0006     60.0006
outcell: Cell volume (Ang**3)        :     51.0468
<dSpData1D:S at geom step 8
  <sparsity:sparsity for geom step 8
    nrows_g=26 nrows=14 sparsity=14.9970 nnzs=10138, refcount: 7>
  <dData1D:(new from dSpData1D) n=10138, refcount: 1>
refcount: 1>
new_DM -- step:     9
Re-using DM from previous geometries...
Number of DMs in history: 1
 DM extrapolation coefficients: 
1   1.00000
New DM after history re-use:
<dSpData2D:SpM extrapolated using coords
  <sparsity:sparsity for geom step 8
    nrows_g=26 nrows=14 sparsity=14.9970 nnzs=10138, refcount: 9>
  <dData2D:(temp array for extrapolation) n=10138 m=1, refcount: 1>
refcount: 1>
Note: For starting DM, Qtot, Tr[D*S] =          8.00000000          8.16099394
No. of atoms with KB's overlaping orbs in proc 0. Max # of overlaps:      17     161

InitMesh: MESH = 36 x 36 x 36 = 46656
InitMesh: Mesh cutoff (required, used) =   300.000   309.890 Ry
New grid distribution [1]: sub = 2
New grid distribution [2]: sub = 2
New grid distribution [3]: sub = 2
Setting up quadratic distribution...

        iscf     Eharris(eV)        E_KS(eV)     FreeEng(eV)     dDmax    Ef(eV) dHmax(eV)
   scf:    1     -212.993992     -213.286805     -213.286805  0.078116 -4.029103  0.052248
   scf:    2     -213.286968     -213.286897     -213.286897  0.004048 -3.986357  0.008430
   scf:    3     -213.286903     -213.286901     -213.286901  0.000519 -3.992074  0.000330
   scf:    4     -213.286901     -213.286901     -213.286901  0.000026 -3.992028  0.000252

SCF Convergence by DM+H criterion
max |DM_out - DM_in|         :     0.0000258292
max |H_out - H_in|      (eV) :     0.0002515046
SCF cycle converged after 4 iterations

Using DM_out to compute the final energy and forces
No. of atoms with KB's overlaping orbs in proc 0. Max # of overlaps:      17     161

siesta: E_KS(eV) =             -213.2869

siesta: Atomic forces (eV/Ang):
----------------------------------------
   Tot   -0.000000   -0.000000   -0.000000
----------------------------------------
   Max    0.000282
   Res    0.000282    sqrt( Sum f_i^2 / 3N )
----------------------------------------
   Max    0.000282    constrained

Stress tensor Voigt[x,y,z,yz,xz,xy] (kbar):      110.89      110.89      110.89       -0.00       -0.00       -0.00
(Free)E + p*V (eV/cell)     -216.8200
Target enthalpy (eV/cell)     -213.2869

siesta: Stress tensor (static) (eV/Ang**3):
         0.069214   -0.000002   -0.000002
        -0.000002    0.069214   -0.000002
        -0.000002   -0.000002    0.069214

siesta: Pressure (static):       -110.89302751  kBar

siesta: Stress tensor (total) (eV/Ang**3):
         0.069214   -0.000002   -0.000002
        -0.000002    0.069214   -0.000002
        -0.000002   -0.000002    0.069214

siesta: Pressure (total):       -110.89302751  kBar

                     ====================================
                        Begin CG opt. move =      9
                     ====================================
k-point displ. along   1 input, could be:     0.00    0.50
k-point displ. along   2 input, could be:     0.00    0.50
k-point displ. along   3 input, could be:     0.00    0.50
 Kpoints in:           48 . Kpoints trimmed:           44

siesta: k-grid: Number of k-points = 44
siesta: k-points from Monkhorst-Pack grid
siesta: k-cutoff (effective) =     8.118 Ang
siesta: k-point supercell and displacements
siesta: k-grid:     4     0     0      0.000
siesta: k-grid:     0     4     0      0.000
siesta: k-grid:     0     0     4      0.000

superc: Internal auxiliary supercell:     5 x     5 x     5  =     125
superc: Number of atoms, orbitals, and projectors:    250   3250   1000

outcell: Unit cell vectors (Ang):
       -0.000030    2.870182    2.870182
        2.870182   -0.000030    2.870182
        2.870182    2.870182   -0.000030

outcell: Cell vector modules (Ang)   :    4.059050    4.059050    4.059050
outcell: Cell angles (23,13,12) (deg):     60.0007     60.0007     60.0007
outcell: Cell volume (Ang**3)        :     47.2895
<dSpData1D:S at geom step 9
  <sparsity:sparsity for geom step 9
    nrows_g=26 nrows=14 sparsity=14.9970 nnzs=10138, refcount: 7>
  <dData1D:(new from dSpData1D) n=10138, refcount: 1>
refcount: 1>
new_DM -- step:    10
Re-using DM from previous geometries...
Number of DMs in history: 1
 DM extrapolation coefficients: 
1   1.00000
New DM after history re-use:
<dSpData2D:SpM extrapolated using coords
  <sparsity:sparsity for geom step 9
    nrows_g=26 nrows=14 sparsity=14.9970 nnzs=10138, refcount: 9>
  <dData2D:(temp array for extrapolation) n=10138 m=1, refcount: 1>
refcount: 1>
Note: For starting DM, Qtot, Tr[D*S] =          8.00000000          8.16235705
No. of atoms with KB's overlaping orbs in proc 0. Max # of overlaps:      17     161

InitMesh: MESH = 36 x 36 x 36 = 46656
InitMesh: Mesh cutoff (required, used) =   300.000   326.093 Ry
New grid distribution [1]: sub = 2
New grid distribution [2]: sub = 2
New grid distribution [3]: sub = 2
Setting up quadratic distribution...

        iscf     Eharris(eV)        E_KS(eV)     FreeEng(eV)     dDmax    Ef(eV) dHmax(eV)
   scf:    1     -213.167644     -213.513141     -213.513141  0.082713 -3.907977  0.054543
   scf:    2     -213.513338     -213.513253     -213.513253  0.005350 -3.874174  0.009158
   scf:    3     -213.513261     -213.513257     -213.513257  0.000730 -3.880309  0.000325
   scf:    4     -213.513257     -213.513257     -213.513257  0.000021 -3.880262  0.000248

SCF Convergence by DM+H criterion
max |DM_out - DM_in|         :     0.0000207517
max |H_out - H_in|      (eV) :     0.0002478100
SCF cycle converged after 4 iterations

Using DM_out to compute the final energy and forces
No. of atoms with KB's overlaping orbs in proc 0. Max # of overlaps:      17     161

siesta: E_KS(eV) =             -213.5133

siesta: Atomic forces (eV/Ang):
----------------------------------------
   Tot    0.000000    0.000000   -0.000000
----------------------------------------
   Max    0.000383
   Res    0.000383    sqrt( Sum f_i^2 / 3N )
----------------------------------------
   Max    0.000383    constrained

Stress tensor Voigt[x,y,z,yz,xz,xy] (kbar):       79.45       79.45       79.45       -0.01       -0.01       -0.01
(Free)E + p*V (eV/cell)     -215.8584
Target enthalpy (eV/cell)     -213.5133

siesta: Stress tensor (static) (eV/Ang**3):
         0.049591   -0.000005   -0.000005
        -0.000005    0.049591   -0.000005
        -0.000005   -0.000005    0.049591

siesta: Pressure (static):        -79.45335436  kBar

siesta: Stress tensor (total) (eV/Ang**3):
         0.049591   -0.000005   -0.000005
        -0.000005    0.049591   -0.000005
        -0.000005   -0.000005    0.049591

siesta: Pressure (total):        -79.45335436  kBar

                     ====================================
                        Begin CG opt. move =     10
                     ====================================
k-point displ. along   1 input, could be:     0.00    0.50
k-point displ. along   2 input, could be:     0.00    0.50
k-point displ. along   3 input, could be:     0.00    0.50
 Kpoints in:           48 . Kpoints trimmed:           44

siesta: k-grid: Number of k-points = 44
siesta: k-points from Monkhorst-Pack grid
siesta: k-cutoff (effective) =     7.909 Ang
siesta: k-point supercell and displacements
siesta: k-grid:     4     0     0      0.000
siesta: k-grid:     0     4     0      0.000
siesta: k-grid:     0     0     4      0.000

superc: Internal auxiliary supercell:     5 x     5 x     5  =     125
superc: Number of atoms, orbitals, and projectors:    250   3250   1000

outcell: Unit cell vectors (Ang):
       -0.000034    2.796096    2.796096
        2.796096   -0.000034    2.796096
        2.796096    2.796096   -0.000034

outcell: Cell vector modules (Ang)   :    3.954276    3.954276    3.954276
outcell: Cell angles (23,13,12) (deg):     60.0008     60.0008     60.0008
outcell: Cell volume (Ang**3)        :     43.7214
<dSpData1D:S at geom step 10
  <sparsity:sparsity for geom step 10
    nrows_g=26 nrows=14 sparsity=15.2633 nnzs=10318, refcount: 7>
  <dData1D:(new from dSpData1D) n=10318, refcount: 1>
refcount: 1>
new_DM -- step:    11
Re-using DM from previous geometries...
Number of DMs in history: 1
 DM extrapolation coefficients: 
1   1.00000
New DM after history re-use:
<dSpData2D:SpM extrapolated using coords
  <sparsity:sparsity for geom step 10
    nrows_g=26 nrows=14 sparsity=15.2633 nnzs=10318, refcount: 9>
  <dData2D:(temp array for extrapolation) n=10318 m=1, refcount: 1>
refcount: 1>
Note: For starting DM, Qtot, Tr[D*S] =          8.00000000          8.16189923
No. of atoms with KB's overlaping orbs in proc 0. Max # of overlaps:      17     161

InitMesh: MESH = 36 x 36 x 36 = 46656
InitMesh: Mesh cutoff (required, used) =   300.000   343.602 Ry
New grid distribution [1]: sub = 2
New grid distribution [2]: sub = 2
New grid distribution [3]: sub = 2
Setting up quadratic distribution...

        iscf     Eharris(eV)        E_KS(eV)     FreeEng(eV)     dDmax    Ef(eV) dHmax(eV)
   scf:    1     -213.226590     -213.640692     -213.640692  0.080478 -3.959018  0.056606
   scf:    2     -213.640928     -213.640826     -213.640826  0.006987 -3.919129  0.009905
   scf:    3     -213.640836     -213.640832     -213.640832  0.001003 -3.924526  0.000323
   scf:    4     -213.640832     -213.640832     -213.640832  0.000016 -3.924473  0.000247

SCF Convergence by DM+H criterion
max |DM_out - DM_in|         :     0.0000160259
max |H_out - H_in|      (eV) :     0.0002469057
SCF cycle converged after 4 iterations

Using DM_out to compute the final energy and forces
No. of atoms with KB's overlaping orbs in proc 0. Max # of overlaps:      17     161

siesta: E_KS(eV) =             -213.6408

siesta: Atomic forces (eV/Ang):
----------------------------------------
   Tot    0.000000    0.000000   -0.000000
----------------------------------------
   Max    0.000511
   Res    0.000511    sqrt( Sum f_i^2 / 3N )
----------------------------------------
   Max    0.000511    constrained

Stress tensor Voigt[x,y,z,yz,xz,xy] (kbar):       31.28       31.28       31.28       -0.02       -0.02       -0.02
(Free)E + p*V (eV/cell)     -214.4945
Target enthalpy (eV/cell)     -213.6408

siesta: Stress tensor (static) (eV/Ang**3):
         0.019526   -0.000010   -0.000010
        -0.000010    0.019526   -0.000010
        -0.000010   -0.000010    0.019526

siesta: Pressure (static):        -31.28453374  kBar

siesta: Stress tensor (total) (eV/Ang**3):
         0.019526   -0.000010   -0.000010
        -0.000010    0.019526   -0.000010
        -0.000010   -0.000010    0.019526

siesta: Pressure (total):        -31.28453374  kBar

                     ====================================
                        Begin CG opt. move =     11
                     ====================================
k-point displ. along   1 input, could be:     0.00    0.50
k-point displ. along   2 input, could be:     0.00    0.50
k-point displ. along   3 input, could be:     0.00    0.50
 Kpoints in:           48 . Kpoints trimmed:           44

siesta: k-grid: Number of k-points = 44
siesta: k-points from Monkhorst-Pack grid
siesta: k-cutoff (effective) =     7.699 Ang
siesta: k-point supercell and displacements
siesta: k-grid:     4     0     0      0.000
siesta: k-grid:     0     4     0      0.000
siesta: k-grid:     0     0     4      0.000

superc: Internal auxiliary supercell:     5 x     5 x     5  =     125
superc: Number of atoms, orbitals, and projectors:    250   3250   1000

outcell: Unit cell vectors (Ang):
       -0.000037    2.722009    2.722009
        2.722009   -0.000037    2.722009
        2.722009    2.722009   -0.000037

outcell: Cell vector modules (Ang)   :    3.849502    3.849502    3.849502
outcell: Cell angles (23,13,12) (deg):     60.0009     60.0009     60.0009
outcell: Cell volume (Ang**3)        :     40.3374
<dSpData1D:S at geom step 11
  <sparsity:sparsity for geom step 11
    nrows_g=26 nrows=14 sparsity=16.8580 nnzs=11396, refcount: 7>
  <dData1D:(new from dSpData1D) n=11396, refcount: 1>
refcount: 1>
new_DM -- step:    12
Re-using DM from previous geometries...
Number of DMs in history: 1
 DM extrapolation coefficients: 
1   1.00000
New DM after history re-use:
<dSpData2D:SpM extrapolated using coords
  <sparsity:sparsity for geom step 11
    nrows_g=26 nrows=14 sparsity=16.8580 nnzs=11396, refcount: 9>
  <dData2D:(temp array for extrapolation) n=11396 m=1, refcount: 1>
refcount: 1>
Note: For starting DM, Qtot, Tr[D*S] =          8.00000000          8.16027435
No. of atoms with KB's overlaping orbs in proc 0. Max # of overlaps:      17     161

InitMesh: MESH = 36 x 36 x 36 = 46656
InitMesh: Mesh cutoff (required, used) =   300.000   362.560 Ry
New grid distribution [1]: sub = 2
New grid distribution [2]: sub = 2
New grid distribution [3]: sub = 2
Setting up quadratic distribution...

        iscf     Eharris(eV)        E_KS(eV)     FreeEng(eV)     dDmax    Ef(eV) dHmax(eV)
   scf:    1     -213.138460     -213.636654     -213.636654  0.071394 -4.028300  0.057468
   scf:    2     -213.636922     -213.636807     -213.636808  0.008576 -3.988103  0.010416
   scf:    3     -213.636820     -213.636814     -213.636814  0.001274 -3.993979  0.000337
   scf:    4     -213.636814     -213.636814     -213.636814  0.000014 -3.993903  0.000258

SCF Convergence by DM+H criterion
max |DM_out - DM_in|         :     0.0000141636
max |H_out - H_in|      (eV) :     0.0002576760
SCF cycle converged after 4 iterations

Using DM_out to compute the final energy and forces
No. of atoms with KB's overlaping orbs in proc 0. Max # of overlaps:      17     161

siesta: E_KS(eV) =             -213.6368

siesta: Atomic forces (eV/Ang):
----------------------------------------
   Tot    0.000000    0.000000   -0.000000
----------------------------------------
   Max    0.000676
   Res    0.000676    sqrt( Sum f_i^2 / 3N )
----------------------------------------
   Max    0.000676    constrained

Stress tensor Voigt[x,y,z,yz,xz,xy] (kbar):      -40.42      -40.42      -40.42       -0.03       -0.03       -0.03
(Free)E + p*V (eV/cell)     -212.6191
Target enthalpy (eV/cell)     -213.6368

siesta: Stress tensor (static) (eV/Ang**3):
        -0.025231   -0.000017   -0.000017
        -0.000017   -0.025231   -0.000017
        -0.000017   -0.000017   -0.025231

siesta: Pressure (static):         40.42449857  kBar

siesta: Stress tensor (total) (eV/Ang**3):
        -0.025231   -0.000017   -0.000017
        -0.000017   -0.025231   -0.000017
        -0.000017   -0.000017   -0.025231

siesta: Pressure (total):         40.42449857  kBar

                     ====================================
                        Begin CG opt. move =     12
                     ====================================
k-point displ. along   1 input, could be:     0.00    0.50
k-point displ. along   2 input, could be:     0.00    0.50
k-point displ. along   3 input, could be:     0.00    0.50
 Kpoints in:           48 . Kpoints trimmed:           44

siesta: k-grid: Number of k-points = 44
siesta: k-points from Monkhorst-Pack grid
siesta: k-cutoff (effective) =     7.813 Ang
siesta: k-point supercell and displacements
siesta: k-grid:     4     0     0      0.000
siesta: k-grid:     0     4     0      0.000
siesta: k-grid:     0     0     4      0.000

superc: Internal auxiliary supercell:     5 x     5 x     5  =     125
superc: Number of atoms, orbitals, and projectors:    250   3250   1000

outcell: Unit cell vectors (Ang):
       -0.000035    2.762299    2.762299
        2.762299   -0.000035    2.762299
        2.762299    2.762299   -0.000035

outcell: Cell vector modules (Ang)   :    3.906481    3.906481    3.906481
outcell: Cell angles (23,13,12) (deg):     60.0008     60.0008     60.0008
outcell: Cell volume (Ang**3)        :     42.1551
<dSpData1D:S at geom step 12
  <sparsity:sparsity for geom step 12
    nrows_g=26 nrows=14 sparsity=16.7781 nnzs=11342, refcount: 7>
  <dData1D:(new from dSpData1D) n=11342, refcount: 1>
refcount: 1>
new_DM -- step:    13
Re-using DM from previous geometries...
Number of DMs in history: 1
 DM extrapolation coefficients: 
1   1.00000
New DM after history re-use:
<dSpData2D:SpM extrapolated using coords
  <sparsity:sparsity for geom step 12
    nrows_g=26 nrows=14 sparsity=16.7781 nnzs=11342, refcount: 9>
  <dData2D:(temp array for extrapolation) n=11342 m=1, refcount: 1>
refcount: 1>
Note: For starting DM, Qtot, Tr[D*S] =          8.00000000          7.91123126
No. of atoms with KB's overlaping orbs in proc 0. Max # of overlaps:      17     161

InitMesh: MESH = 36 x 36 x 36 = 46656
InitMesh: Mesh cutoff (required, used) =   300.000   352.061 Ry
New grid distribution [1]: sub = 2
New grid distribution [2]: sub = 2
New grid distribution [3]: sub = 2
Setting up quadratic distribution...

        iscf     Eharris(eV)        E_KS(eV)     FreeEng(eV)     dDmax    Ef(eV) dHmax(eV)
   scf:    1     -213.950555     -213.657646     -213.657646  0.037757 -3.934349  0.031726
   scf:    2     -213.657722     -213.657689     -213.657689  0.004307 -3.956820  0.005588
   scf:    3     -213.657693     -213.657691     -213.657691  0.000617 -3.953656  0.000193
   scf:    4     -213.657691     -213.657691     -213.657691  0.000007 -3.953693  0.000148

SCF Convergence by DM+H criterion
max |DM_out - DM_in|         :     0.0000074409
max |H_out - H_in|      (eV) :     0.0001475525
SCF cycle converged after 4 iterations

Using DM_out to compute the final energy and forces
No. of atoms with KB's overlaping orbs in proc 0. Max # of overlaps:      17     161

siesta: E_KS(eV) =             -213.6577

siesta: Atomic forces (eV/Ang):
----------------------------------------
   Tot    0.000000    0.000000   -0.000000
----------------------------------------
   Max    0.000586
   Res    0.000586    sqrt( Sum f_i^2 / 3N )
----------------------------------------
   Max    0.000586    constrained

Stress tensor Voigt[x,y,z,yz,xz,xy] (kbar):        2.10        2.10        2.10       -0.02       -0.02       -0.02
(Free)E + p*V (eV/cell)     -213.7128
Target enthalpy (eV/cell)     -213.6577

siesta: Stress tensor (static) (eV/Ang**3):
         0.001308   -0.000013   -0.000013
        -0.000013    0.001308   -0.000013
        -0.000013   -0.000013    0.001308

siesta: Pressure (static):         -2.09532822  kBar

siesta: Stress tensor (total) (eV/Ang**3):
         0.001308   -0.000013   -0.000013
        -0.000013    0.001308   -0.000013
        -0.000013   -0.000013    0.001308

siesta: Pressure (total):         -2.09532822  kBar

outcoor: Relaxed atomic coordinates (fractional):           
    0.24999677    0.24999677    0.24999677   1       1  Si
    0.00000323    0.00000323    0.00000323   1       2  Si

outcell: Unit cell vectors (Ang):
       -0.000035    2.762299    2.762299
        2.762299   -0.000035    2.762299
        2.762299    2.762299   -0.000035

outcell: Cell vector modules (Ang)   :    3.906481    3.906481    3.906481
outcell: Cell angles (23,13,12) (deg):     60.0008     60.0008     60.0008
outcell: Cell volume (Ang**3)        :     42.1551

siesta: Program's energy decomposition (eV):
siesta: Ebs     =       -74.884365
siesta: Eions   =       444.480597
siesta: Ena     =       174.618053
siesta: Ekin    =        81.315212
siesta: Enl     =        35.221948
siesta: Eso     =         0.000000
siesta: Edftu   =         0.000000
siesta: DEna    =         3.985868
siesta: DUscf   =         0.321903
siesta: DUext   =         0.000000
siesta: Ex      =       -56.464446
siesta: Ec      =        -8.175633
siesta: Exc     =       -64.640079
siesta: EbV     =         0.000000
siesta: eta*DQ  =         0.000000
siesta: Emadel  =         0.000000
siesta: Emeta   =         0.000000
siesta: Emolmec =         0.000000
siesta: Ekinion =         0.000000
siesta: Eharris =      -213.657691
siesta: Etot    =      -213.657691
siesta: FreeEng =      -213.657691

siesta: Final energy (eV):
siesta:  Band Struct. =     -74.884365
siesta:       Kinetic =      81.315212
siesta:       Hartree =      15.533100
siesta:         Edftu =       0.000000
siesta:       Eso     =       0.000000
siesta:    Ext. field =       0.000000
siesta:         Exch. =     -56.464446
siesta:         Corr. =      -8.175633
siesta:     Bulk bias =       0.000000
siesta:   Exch.-corr. =     -64.640079
siesta:  Ion-electron =    -103.171232
siesta:       Ion-ion =    -142.694692
siesta:       Ekinion =       0.000000
siesta: D3 dispersion =       0.000000
siesta:         Total =    -213.657691
siesta:         Fermi =      -3.953693

siesta: Stress tensor (static) (eV/Ang**3):
siesta:     0.001308   -0.000013   -0.000013
siesta:    -0.000013    0.001308   -0.000013
siesta:    -0.000013   -0.000013    0.001308

siesta: Constrained stress tensor (static) (eV/Ang**3):
siesta:     0.001308   -0.000013   -0.000013
siesta:    -0.000013    0.001308   -0.000013
siesta:    -0.000013   -0.000013    0.001308

siesta: Cell volume =         42.155128 Ang**3

siesta: Pressure (static):
siesta:                Solid            Molecule  Units
siesta:          -0.00001424         -0.00001445  Ry/Bohr**3
siesta:          -0.00130780         -0.00132700  eV/Ang**3
siesta:          -2.09532822         -2.12608867  kBar
(Free)E+ p_basis*V_orbitals  =        -212.142736
(Free)Eharris+ p_basis*V_orbitals  =        -212.142736

cite: Please see "Si-diamond.bib" for an exhaustive BiBTeX file.
cite: Please clearly indicate Siesta version in published work: 5.0.1
cite: This calculation has made use of the following articles
cite: which are encouraged to be cited in a published work.
        Primary SIESTA paper
          DOI: www.doi.org/10.1088/0953-8984/14/11/302


>> End of run:   5-DEC-2024  17:23:58
Job completed
