Executable      : siesta
Version         : 5.0.1
Architecture    : x86_64
Compiler version: GNU-12.4.0
Compiler flags  : -march=nocona -mtune=haswell -ftree-vectorize -fPIC -fstack-protector-strong -fno-plt -O2 -ffunction-sections -pipe -isystem <prefix>/include -fdebug-prefix-map=<prefix>/work=/usr/local/src/conda/siesta-5.0.1 -fdebug-prefix-map=<prefix>=/usr/local/src/conda-prefix -I<prefix>/lib -fallow-argument-mismatch -O3
Parallelisations: MPI
NetCDF support
NetCDF-4 support
NetCDF-4 MPI-IO support
Lua support
Native ELPA support
DFT-D3 support

Runtime information:
* Directory : /home/carlos/documents/siesta-hands-on/siesta-complete-guide/Chapter-8/smearing/ec_250
* Running on 2 nodes in parallel.
>> Start of run:   5-DEC-2024  17:44:36

                           *********************** 
                           *  WELCOME TO SIESTA  * 
                           *********************** 

 NOTE: Siesta V5 introduces some new defaults for basis-set generation
 NOTE: which might lead to slightly different numerical results.
 NOTE: Please see the manual for full details and compatibility measures.


reinit: Reading from file calc.fdf

reinit: -----------------------------------------------------------------------
reinit: System Name: Si bulk diamond
reinit: -----------------------------------------------------------------------
reinit: System Label: Si-diamond
reinit: -----------------------------------------------------------------------

initatom: Reading input for the pseudopotentials and atomic orbitals ----------
Species number:   1 Atomic number:   14 Label: Si

Ground state valence configuration (from tables):   3s02  3p02  3d00  4f00

---- Processing specs for species: Si
Reading pseudopotential information in unformatted form from:
  Si.vps

---- Pseudopotential check for Si

Pseudized shells:
3s( 2.00) rc: 1.23
3p( 2.00) rc: 1.43
Valence configuration for ps generation: (assumed as above)
For Si, standard SIESTA heuristics set lmxkb to 3
 (one more than the basis l, including polarization orbitals).
Use PS.lmax or PS.KBprojectors blocks to override.
Si pseudopotential only contains V_ls up to l=1 -- lmxkb reset.

<basis_specs>
===============================================================================
Si                   Z=  14    Mass=  28.090        Charge= 0.17977+309
Lmxo=2 Lmxkb= 1    BasisType=split      Semic=F
L=0  Nsemic=0  Cnfigmx=3
          i=1  nzeta=2  polorb=0  (3s)
            splnorm:   0.15000    
               vcte:    40.000    
               rinn:  -0.90000    
               qcoe:    0.0000    
               qyuk:    0.0000    
               qwid:   0.10000E-01
                rcs:    0.0000      0.0000    
            lambdas:    1.0000      1.0000    
L=1  Nsemic=0  Cnfigmx=3
          i=1  nzeta=2  polorb=1  (3p)  (to be polarized perturbatively)
            splnorm:   0.15000    
               vcte:    40.000    
               rinn:  -0.90000    
               qcoe:    0.0000    
               qyuk:    0.0000    
               qwid:   0.10000E-01
                rcs:    0.0000      0.0000    
            lambdas:    1.0000      1.0000    
L=2  Nsemic=0  Cnfigmx=3
          i=1  nzeta=0  polorb=0  (3d)  (perturbative polarization orbital) (from 3p)
-------------------------------------------------------------------------------
L=0  Nkbl=1  erefs: 0.17977+309
L=1  Nkbl=1  erefs: 0.17977+309
===============================================================================
</basis_specs>

Using PAO.SplitTailNorm
atom: Called for Si                    (Z =  14)
NOTE: Si pseudopotential has channels up to l= 1
NOTE: PAOs with higher l will be generated with V_local
Maximum radius (at nrval) set to   50.00000 8518

read_vps: Pseudopotential generation method:
read_vps: ATM4.2.7  Kerker                                  
Valence charge in pseudo generation:    4.00000

xc_check: Exchange-correlation functional:
xc_check: GGA Perdew, Burke & Ernzerhof 1996
V l=0 = -2*Zval/r beyond r=  2.8074
V l=1 = -2*Zval/r beyond r=  2.8074
All V_l potentials equal beyond r=  1.5163
This should be close to max(r_c) in ps generation
All pots = -2*Zval/r beyond r=  2.8074
Using large-core scheme (fit) for Vlocal

atom: Estimated core radius    2.80744

atom: Including non-local core corrections could be a good idea
Fit of Vlocal with continuous 2nd derivative
Fitting vlocal at       1.5209
Choosing vlocal chloc cutoff:  5726  3.054333
qtot up to nchloc:    3.99984030
atom: Maximum radius for chlocal:    3.05433
atom: Maximum radius for r*vlocal+2*Zval:    3.05433

KBgen: Kleinman-Bylander projectors: 
GHOST: No ghost state for L =  0
   l= 0   rc=  1.511703   el= -0.791527   Ekb=  6.361810   kbcos=  0.278083
GHOST: No ghost state for L =  1
   l= 1   rc=  1.575389   el= -0.300579   Ekb=  2.611741   kbcos=  0.260518

KBgen: Total number of Kleinman-Bylander projectors:   4
atom: -------------------------------------------------------------------------

atom: SANKEY-TYPE ORBITALS:
atom: Selected multiple-zeta basis: split     

SPLIT: Orbitals with angular momentum L= 0

SPLIT: Basis orbitals for state 3s

SPLIT: PAO cut-off radius determined from an
SPLIT: energy shift=  0.010000 Ry
Split based on tail norm

   izeta = 1
                 lambda =    1.000000
                     rc =    5.403143
                 energy =   -0.779945
                kinetic =    0.563858
    potential(screened) =   -1.343803
       potential(ionic) =   -3.794934

   izeta = 2
                 rmatch =    3.854490
              splitnorm =    0.150000
                 energy =   -0.529540
                kinetic =    1.167421
    potential(screened) =   -1.696961
       potential(ionic) =   -4.291182

SPLIT: Orbitals with angular momentum L= 1

SPLIT: Basis orbitals for state 3p

SPLIT: PAO cut-off radius determined from an
SPLIT: energy shift=  0.010000 Ry
Split based on tail norm

   izeta = 1
                 lambda =    1.000000
                     rc =    6.843982
                 energy =   -0.289102
                kinetic =    0.857285
    potential(screened) =   -1.146387
       potential(ionic) =   -3.385088

   izeta = 2
                 rmatch =    4.952104
              splitnorm =    0.150000
                 energy =   -0.182759
                kinetic =    1.296336
    potential(screened) =   -1.479095
       potential(ionic) =   -3.923275
*Note: V_local used for l= 2

** Using vlocal for PAOs with L= 2

POLgen: Perturbative polarization orbital with L=  2

POLgen: Polarization orbital for state 3p
*Note: V_local used for lpol= 2

** Using vlocal for PAOs with L= 2
Split based on tail norm

   izeta = 1
                     rc =    6.843982
                 energy =    0.369369
                kinetic =    1.362956
    potential(screened) =   -0.993588
       potential(ionic) =   -3.078590
atom: Total number of Sankey-type orbitals: 13

atm_pop: Valence configuration (for local Pseudopot. screening):
 3s( 2.00)                                                            
 3p( 2.00)                                                            
 3d( 0.00)                                                            
Vna: chval, zval:    4.00000   4.00000

Vna:  Cut-off radius for the neutral-atom potential:   6.843982

atom: _________________________________________________________________________

prinput: Basis input 

PAO.BasisType split     

%block ChemicalSpeciesLabel
    1   14 Si                      # Species index, atomic number, species label
%endblock ChemicalSpeciesLabel

%block PAO.Basis                 # Define Basis set
# WARNING: This information might be incomplete!
Si                    2                    # Species label, number of l-shells
 n=3   0   2                         # n, l, Nzeta 
   5.403      3.854   
   1.000      1.000   
 n=3   1   2 P   1                   # n, l, Nzeta, Polarization, NzetaPol
   6.844      4.952   
   1.000      1.000   
%endblock PAO.Basis

prinput: ----------------------------------------------------------------------

Dumping basis to NetCDF file Si.ion.nc
coor:   Atomic-coordinates input format  =     Fractional

siesta: Atomic coordinates (Bohr) and species
siesta:      3.30702   3.30702   3.30702  1        1
siesta:      0.00000   0.00000   0.00000  1        2

siesta: System type = bulk      

initatomlists: Number of atoms, orbitals, and projectors:      2    26     8

siesta: ******************** Simulation parameters ****************************
siesta:
siesta: The following are some of the parameters of the simulation.
siesta: A complete list of the parameters used, including default values,
siesta: can be found in file out.fdf
siesta:
redata: Spin configuration                          = none
redata: Number of spin components                   = 1
redata: Time-Reversal Symmetry                      = T
redata: Spin spiral                                 = F
redata: Long output                                 =   F
redata: Number of Atomic Species                    =        1
redata: Charge density info will appear in .RHO file
redata: Write Mulliken Pop.                         = NO
redata: Matel table size (NRTAB)                    =     1024
redata: Mesh Cutoff                                 =   300.0000 Ry
redata: Net charge of the system                    =     0.0000 |e|
redata: Min. number of SCF Iter                     =        0
redata: Max. number of SCF Iter                     =      300
redata: SCF convergence failure will abort job
redata: SCF mix quantity                            = Hamiltonian
redata: Mix DM or H after convergence               =   F
redata: Recompute H after scf cycle                 =   F
redata: Mix DM in first SCF step                    =   T
redata: Write Pulay info on disk                    =   F
redata: New DM Occupancy tolerance                  = 0.000000000001
redata: No kicks to SCF
redata: DM Mixing Weight for Kicks                  =     0.5000
redata: Require Harris convergence for SCF          =   F
redata: Harris energy tolerance for SCF             =     0.000100 eV
redata: Require DM convergence for SCF              =   T
redata: DM tolerance for SCF                        =     0.000100
redata: Require EDM convergence for SCF             =   F
redata: EDM tolerance for SCF                       =     0.001000 eV
redata: Require H convergence for SCF               =   T
redata: Hamiltonian tolerance for SCF               =     0.001000 eV
redata: Require (free) Energy convergence for SCF   =   F
redata: (free) Energy tolerance for SCF             =     0.000100 eV
redata: Using DFT-D3 dispersion                     =   F
redata: Using Saved Data (generic)                  =   F
redata: Use continuation files for DM               =   T
redata: Neglect nonoverlap interactions             =   F
redata: Method of Calculation                       = Diagonalization
redata: Electronic Temperature                      =   250.0000 K
redata: Fix the spin of the system                  =   F
redata: Max. number of TDED Iter                    =        1
redata: Number of TDED substeps                     =        3
redata: Dynamics option                             = CG coord. optimization
redata: Variable cell                               =   T
redata: Use continuation files for CG               =   F
redata: Max atomic displ per move                   =     0.1058 Ang
redata: Maximum number of optimization moves        =       30
redata: Force tolerance                             =     0.0010 eV/Ang
redata: Stress tolerance                            =     1.0000 GPa
mix.SCF: Pulay mixing                            = Pulay
mix.SCF:    Variant                              = stable
mix.SCF:    History steps                        = 2
mix.SCF:    Linear mixing weight                 =     0.250000
mix.SCF:    Mixing weight                        =     0.250000
mix.SCF:    SVD condition                        = 0.1000E-07
redata: Save all siesta data in one NC              =   F
redata: ***********************************************************************

%block SCF.Mixers
  Pulay
%endblock SCF.Mixers

%block SCF.Mixer.Pulay
  # Mixing method
  method pulay
  variant stable

  # Mixing options
  weight 0.2500
  weight.linear 0.2500
  history 2
%endblock SCF.Mixer.Pulay

DM_history_depth set to one: no extrapolation allowed by default for geometry relaxation
Size of DM history Fstack: 1
Total number of electrons:     8.000000
Total ionic charge:     8.000000

* ProcessorY, Blocksize:    2  14


* Orbital distribution balance (max,min):    14    12

k-point displ. along   1 input, could be:     0.00    0.50
k-point displ. along   2 input, could be:     0.00    0.50
k-point displ. along   3 input, could be:     0.00    0.50
 Kpoints in:          144 . Kpoints trimmed:          132

siesta: k-grid: Number of k-points = 132
siesta: k-points from Monkhorst-Pack grid
siesta: k-cutoff (effective) =    14.849 Ang
siesta: k-point supercell and displacements
siesta: k-grid:     6     0     0      0.000
siesta: k-grid:     0     6     0      0.000
siesta: k-grid:     0     0     6      0.000

diag: Algorithm                                     = D&C
diag: Parallel over k                               =   F
diag: Use parallel 2D distribution                  =   F
diag: Parallel block-size                           = 14
diag: Parallel distribution                         =     1 x     2
diag: Used triangular part                          = Lower
diag: Absolute tolerance                            =  0.100E-15
diag: Orthogonalization factor                      =  0.100E-05
diag: Memory factor                                 =  1.0000

superc: Internal auxiliary supercell:     3 x     3 x     3  =      27
superc: Number of atoms, orbitals, and projectors:     54    702    216


ts: **************************************************************
ts: Save H and S matrices                           =    F
ts: Save DM and EDM matrices                        =    F
ts: Only save the overlap matrix S                  =    F
ts: **************************************************************

************************ Begin: TS CHECKS AND WARNINGS ************************
************************ End: TS CHECKS AND WARNINGS **************************


                     ====================================
                        Begin CG opt. move =      0
                     ====================================

superc: Internal auxiliary supercell:     3 x     3 x     3  =      27
superc: Number of atoms, orbitals, and projectors:     54    702    216

outcell: Unit cell vectors (Ang):
        0.000000    3.500000    3.500000
        3.500000    0.000000    3.500000
        3.500000    3.500000    0.000000

outcell: Cell vector modules (Ang)   :    4.949747    4.949747    4.949747
outcell: Cell angles (23,13,12) (deg):     60.0000     60.0000     60.0000
outcell: Cell volume (Ang**3)        :     85.7500
<dSpData1D:S at geom step 0
  <sparsity:sparsity for geom step 0
    nrows_g=26 nrows=14 sparsity=7.3817 nnzs=4990, refcount: 7>
  <dData1D:(new from dSpData1D) n=4990, refcount: 1>
refcount: 1>
new_DM -- step:     1
Initializing Density Matrix...

Attempting to read DM from file... Failed...
DM filled with atomic data:
<dSpData2D:DM initialized from atoms
  <sparsity:sparsity for geom step 0
    nrows_g=26 nrows=14 sparsity=7.3817 nnzs=4990, refcount: 8>
  <dData2D:DM n=4990 m=1, refcount: 1>
refcount: 1>
No. of atoms with KB's overlaping orbs in proc 0. Max # of overlaps:       8      61

InitMesh: MESH = 48 x 48 x 48 = 110592
InitMesh: Mesh cutoff (required, used) =   300.000   389.861 Ry
New grid distribution [1]: sub = 2
New grid distribution [2]: sub = 2
New grid distribution [3]: sub = 2
Setting up quadratic distribution...

stepf: Fermi-Dirac step function

siesta: Program's energy decomposition (eV):
siesta: Ebs     =       -64.983951
siesta: Eions   =       444.480597
siesta: Ena     =       181.138495
siesta: Ekin    =        66.924397
siesta: Enl     =        33.625966
siesta: Eso     =         0.000000
siesta: Edftu   =         0.000000
siesta: DEna    =         8.768951
siesta: DUscf   =         0.288636
siesta: DUext   =         0.000000
siesta: Ex      =       -49.893017
siesta: Ec      =        -6.975696
siesta: Exc     =       -56.868712
siesta: EbV     =         0.000000
siesta: eta*DQ  =         0.000000
siesta: Emadel  =         0.000000
siesta: Emeta   =         0.000000
siesta: Emolmec =         0.000000
siesta: Ekinion =         0.000000
siesta: Eharris =      -215.663110
siesta: Etot    =      -210.602864
siesta: FreeEng =      -210.606214

        iscf     Eharris(eV)        E_KS(eV)     FreeEng(eV)     dDmax    Ef(eV) dHmax(eV)
   scf:    1     -215.663110     -210.602864     -210.606214  0.706902 -4.351293  0.500667
timer: Routine,Calls,Time,% = IterSCF        1       0.510  23.94
   scf:    2     -210.614805     -210.608935     -210.612245  0.010013 -4.432083  0.343752
   scf:    3     -210.619486     -210.614673     -210.617796  0.021259 -4.605401  0.005218
   scf:    4     -210.614685     -210.614679     -210.617800  0.000244 -4.604955  0.004197
   scf:    5     -210.614695     -210.614688     -210.617805  0.000530 -4.603631  0.001840
   scf:    6     -210.614688     -210.614688     -210.617805  0.000070 -4.603133  0.001151
   scf:    7     -210.614688     -210.614688     -210.617805  0.000098 -4.602051  0.000821

SCF Convergence by DM+H criterion
max |DM_out - DM_in|         :     0.0000978636
max |H_out - H_in|      (eV) :     0.0008214040
SCF cycle converged after 7 iterations

Using DM_out to compute the final energy and forces
No. of atoms with KB's overlaping orbs in proc 0. Max # of overlaps:       8      61

siesta: E_KS(eV) =             -210.6147

siesta: E_KS - E_eggbox =      -210.6147

siesta: Atomic forces (eV/Ang):
----------------------------------------
   Tot   -0.000000   -0.000000    0.000000
----------------------------------------
   Max    0.000027
   Res    0.000027    sqrt( Sum f_i^2 / 3N )
----------------------------------------
   Max    0.000027    constrained

Stress tensor Voigt[x,y,z,yz,xz,xy] (kbar):      116.05      116.05      116.05        0.00        0.00        0.00
(Free)E + p*V (eV/cell)     -216.8287
Target enthalpy (eV/cell)     -210.6178

siesta: Stress tensor (static) (eV/Ang**3):
         0.072431    0.000002    0.000002
         0.000002    0.072431    0.000002
         0.000002    0.000002    0.072431

siesta: Pressure (static):       -116.04666579  kBar

siesta: Stress tensor (total) (eV/Ang**3):
         0.072431    0.000002    0.000002
         0.000002    0.072431    0.000002
         0.000002    0.000002    0.072431

siesta: Pressure (total):       -116.04666579  kBar

cgvc: No target stress found, assuming hydrostatic MD.TargetPressure.

cgvc: Target stress (kBar)
cgvc:        -0.000       0.000       0.000
cgvc:         0.000      -0.000       0.000
cgvc:         0.000       0.000      -0.000

                     ====================================
                        Begin CG opt. move =      1
                     ====================================
k-point displ. along   1 input, could be:     0.00    0.50
k-point displ. along   2 input, could be:     0.00    0.50
k-point displ. along   3 input, could be:     0.00    0.50
 Kpoints in:          144 . Kpoints trimmed:          132

siesta: k-grid: Number of k-points = 132
siesta: k-points from Monkhorst-Pack grid
siesta: k-cutoff (effective) =    14.668 Ang
siesta: k-point supercell and displacements
siesta: k-grid:     6     0     0      0.000
siesta: k-grid:     0     6     0      0.000
siesta: k-grid:     0     0     6      0.000

superc: Internal auxiliary supercell:     3 x     3 x     3  =      27
superc: Number of atoms, orbitals, and projectors:     54    702    216

outcell: Unit cell vectors (Ang):
       -0.000002    3.457226    3.457226
        3.457226   -0.000002    3.457226
        3.457226    3.457226   -0.000002

outcell: Cell vector modules (Ang)   :    4.889256    4.889256    4.889256
outcell: Cell angles (23,13,12) (deg):     60.0000     60.0000     60.0000
outcell: Cell volume (Ang**3)        :     82.6445
<dSpData1D:S at geom step 1
  <sparsity:sparsity for geom step 1
    nrows_g=26 nrows=14 sparsity=7.4349 nnzs=5026, refcount: 7>
  <dData1D:(new from dSpData1D) n=5026, refcount: 1>
refcount: 1>
new_DM -- step:     2
Re-using DM from previous geometries...
Number of DMs in history: 1
 DM extrapolation coefficients: 
1   1.00000
New DM after history re-use:
<dSpData2D:SpM extrapolated using coords
  <sparsity:sparsity for geom step 1
    nrows_g=26 nrows=14 sparsity=7.4349 nnzs=5026, refcount: 9>
  <dData2D:(temp array for extrapolation) n=5026 m=1, refcount: 1>
refcount: 1>
Note: For starting DM, Qtot, Tr[D*S] =          8.00000000          8.07828492
No. of atoms with KB's overlaping orbs in proc 0. Max # of overlaps:       8      61

InitMesh: MESH = 48 x 48 x 48 = 110592
InitMesh: Mesh cutoff (required, used) =   300.000   399.567 Ry
New grid distribution [1]: sub = 2
New grid distribution [2]: sub = 2
New grid distribution [3]: sub = 2
Setting up quadratic distribution...

        iscf     Eharris(eV)        E_KS(eV)     FreeEng(eV)     dDmax    Ef(eV) dHmax(eV)
   scf:    1     -210.795274     -210.844367     -210.846498  0.024507 -4.615005  0.027060
   scf:    2     -210.844339     -210.844356     -210.846515  0.001432 -4.594373  0.004862
   scf:    3     -210.844366     -210.844361     -210.846516  0.000227 -4.597402  0.000150
   scf:    4     -210.844361     -210.844361     -210.846516  0.000011 -4.597369  0.000111

SCF Convergence by DM+H criterion
max |DM_out - DM_in|         :     0.0000112292
max |H_out - H_in|      (eV) :     0.0001112630
SCF cycle converged after 4 iterations

Using DM_out to compute the final energy and forces
No. of atoms with KB's overlaping orbs in proc 0. Max # of overlaps:       8      61

siesta: E_KS(eV) =             -210.8444

siesta: Atomic forces (eV/Ang):
----------------------------------------
   Tot    0.000000    0.000000    0.000000
----------------------------------------
   Max    0.000025
   Res    0.000025    sqrt( Sum f_i^2 / 3N )
----------------------------------------
   Max    0.000025    constrained

Stress tensor Voigt[x,y,z,yz,xz,xy] (kbar):      119.98      119.98      119.98        0.00        0.00        0.00
(Free)E + p*V (eV/cell)     -217.0355
Target enthalpy (eV/cell)     -210.8465

siesta: Stress tensor (static) (eV/Ang**3):
         0.074887    0.000002    0.000002
         0.000002    0.074887    0.000002
         0.000002    0.000002    0.074887

siesta: Pressure (static):       -119.98293849  kBar

siesta: Stress tensor (total) (eV/Ang**3):
         0.074887    0.000002    0.000002
         0.000002    0.074887    0.000002
         0.000002    0.000002    0.074887

siesta: Pressure (total):       -119.98293849  kBar

                     ====================================
                        Begin CG opt. move =      2
                     ====================================
k-point displ. along   1 input, could be:     0.00    0.50
k-point displ. along   2 input, could be:     0.00    0.50
k-point displ. along   3 input, could be:     0.00    0.50
 Kpoints in:          144 . Kpoints trimmed:          132

siesta: k-grid: Number of k-points = 132
siesta: k-points from Monkhorst-Pack grid
siesta: k-cutoff (effective) =    14.377 Ang
siesta: k-point supercell and displacements
siesta: k-grid:     6     0     0      0.000
siesta: k-grid:     0     6     0      0.000
siesta: k-grid:     0     0     6      0.000

superc: Internal auxiliary supercell:     3 x     3 x     3  =      27
superc: Number of atoms, orbitals, and projectors:     54    702    216

outcell: Unit cell vectors (Ang):
       -0.000005    3.388788    3.388788
        3.388788   -0.000005    3.388788
        3.388788    3.388788   -0.000005

outcell: Cell vector modules (Ang)   :    4.792470    4.792470    4.792470
outcell: Cell angles (23,13,12) (deg):     60.0001     60.0001     60.0001
outcell: Cell volume (Ang**3)        :     77.8331
<dSpData1D:S at geom step 2
  <sparsity:sparsity for geom step 2
    nrows_g=26 nrows=14 sparsity=7.7544 nnzs=5242, refcount: 7>
  <dData1D:(new from dSpData1D) n=5242, refcount: 1>
refcount: 1>
new_DM -- step:     3
Re-using DM from previous geometries...
Number of DMs in history: 1
 DM extrapolation coefficients: 
1   1.00000
New DM after history re-use:
<dSpData2D:SpM extrapolated using coords
  <sparsity:sparsity for geom step 2
    nrows_g=26 nrows=14 sparsity=7.7544 nnzs=5242, refcount: 9>
  <dData2D:(temp array for extrapolation) n=5242 m=1, refcount: 1>
refcount: 1>
Note: For starting DM, Qtot, Tr[D*S] =          8.00000000          8.12780353
No. of atoms with KB's overlaping orbs in proc 0. Max # of overlaps:       8      61

InitMesh: MESH = 48 x 48 x 48 = 110592
InitMesh: Mesh cutoff (required, used) =   300.000   415.868 Ry
New grid distribution [1]: sub = 2
New grid distribution [2]: sub = 2
New grid distribution [3]: sub = 2
Setting up quadratic distribution...

        iscf     Eharris(eV)        E_KS(eV)     FreeEng(eV)     dDmax    Ef(eV) dHmax(eV)
   scf:    1     -211.118826     -211.214210     -211.215496  0.039318 -4.621318  0.043463
   scf:    2     -211.214254     -211.214238     -211.215545  0.002255 -4.588566  0.007785
   scf:    3     -211.214248     -211.214244     -211.215547  0.000358 -4.593386  0.000218
   scf:    4     -211.214244     -211.214244     -211.215547  0.000019 -4.593337  0.000162

SCF Convergence by DM+H criterion
max |DM_out - DM_in|         :     0.0000190516
max |H_out - H_in|      (eV) :     0.0001622017
SCF cycle converged after 4 iterations

Using DM_out to compute the final energy and forces
No. of atoms with KB's overlaping orbs in proc 0. Max # of overlaps:       8      61

siesta: E_KS(eV) =             -211.2142

siesta: Atomic forces (eV/Ang):
----------------------------------------
   Tot    0.000000    0.000000    0.000000
----------------------------------------
   Max    0.000006
   Res    0.000006    sqrt( Sum f_i^2 / 3N )
----------------------------------------
   Max    0.000006    constrained

Stress tensor Voigt[x,y,z,yz,xz,xy] (kbar):      125.75      125.75      125.75        0.00        0.00        0.00
(Free)E + p*V (eV/cell)     -217.3243
Target enthalpy (eV/cell)     -211.2155

siesta: Stress tensor (static) (eV/Ang**3):
         0.078485    0.000002    0.000002
         0.000002    0.078485    0.000002
         0.000002    0.000002    0.078485

siesta: Pressure (static):       -125.74742329  kBar

siesta: Stress tensor (total) (eV/Ang**3):
         0.078485    0.000002    0.000002
         0.000002    0.078485    0.000002
         0.000002    0.000002    0.078485

siesta: Pressure (total):       -125.74742329  kBar

                     ====================================
                        Begin CG opt. move =      3
                     ====================================
k-point displ. along   1 input, could be:     0.00    0.50
k-point displ. along   2 input, could be:     0.00    0.50
k-point displ. along   3 input, could be:     0.00    0.50
 Kpoints in:          144 . Kpoints trimmed:          132

siesta: k-grid: Number of k-points = 132
siesta: k-points from Monkhorst-Pack grid
siesta: k-cutoff (effective) =    14.063 Ang
siesta: k-point supercell and displacements
siesta: k-grid:     6     0     0      0.000
siesta: k-grid:     0     6     0      0.000
siesta: k-grid:     0     0     6      0.000

superc: Internal auxiliary supercell:     5 x     5 x     5  =     125
superc: Number of atoms, orbitals, and projectors:    250   3250   1000

outcell: Unit cell vectors (Ang):
       -0.000009    3.314701    3.314701
        3.314701   -0.000009    3.314701
        3.314701    3.314701   -0.000009

outcell: Cell vector modules (Ang)   :    4.687696    4.687696    4.687696
outcell: Cell angles (23,13,12) (deg):     60.0002     60.0002     60.0002
outcell: Cell volume (Ang**3)        :     72.8392
<dSpData1D:S at geom step 3
  <sparsity:sparsity for geom step 3
    nrows_g=26 nrows=14 sparsity=9.0148 nnzs=6094, refcount: 7>
  <dData1D:(new from dSpData1D) n=6094, refcount: 1>
refcount: 1>
new_DM -- step:     4
Re-using DM from previous geometries...
Number of DMs in history: 1
 DM extrapolation coefficients: 
1   1.00000
New DM after history re-use:
<dSpData2D:SpM extrapolated using coords
  <sparsity:sparsity for geom step 3
    nrows_g=26 nrows=14 sparsity=9.0148 nnzs=6094, refcount: 9>
  <dData2D:(temp array for extrapolation) n=6094 m=1, refcount: 1>
refcount: 1>
Note: For starting DM, Qtot, Tr[D*S] =          8.00000000          8.14207268
No. of atoms with KB's overlaping orbs in proc 0. Max # of overlaps:       8      65

InitMesh: MESH = 40 x 40 x 40 = 64000
InitMesh: Mesh cutoff (required, used) =   300.000   301.851 Ry
New grid distribution [1]: sub = 2
New grid distribution [2]: sub = 2
New grid distribution [3]: sub = 2
Setting up quadratic distribution...

        iscf     Eharris(eV)        E_KS(eV)     FreeEng(eV)     dDmax    Ef(eV) dHmax(eV)
   scf:    1     -211.486216     -211.615691     -211.616322  0.045570 -4.546710  0.048892
   scf:    2     -211.615808     -211.615758     -211.616384  0.002400 -4.511280  0.008439
   scf:    3     -211.615761     -211.615760     -211.616386  0.000373 -4.516316  0.000250
   scf:    4     -211.615760     -211.615760     -211.616386  0.000025 -4.516250  0.000187

SCF Convergence by DM+H criterion
max |DM_out - DM_in|         :     0.0000252741
max |H_out - H_in|      (eV) :     0.0001867065
SCF cycle converged after 4 iterations

Using DM_out to compute the final energy and forces
No. of atoms with KB's overlaping orbs in proc 0. Max # of overlaps:       8      65

siesta: E_KS(eV) =             -211.6158

siesta: Atomic forces (eV/Ang):
----------------------------------------
   Tot    0.000000    0.000000    0.000000
----------------------------------------
   Max    0.000069
   Res    0.000069    sqrt( Sum f_i^2 / 3N )
----------------------------------------
   Max    0.000069    constrained

Stress tensor Voigt[x,y,z,yz,xz,xy] (kbar):      131.47      131.47      131.47        0.00        0.00        0.00
(Free)E + p*V (eV/cell)     -217.5936
Target enthalpy (eV/cell)     -211.6164

siesta: Stress tensor (static) (eV/Ang**3):
         0.082060    0.000003    0.000003
         0.000003    0.082060    0.000003
         0.000003    0.000003    0.082060

siesta: Pressure (static):       -131.47443919  kBar

siesta: Stress tensor (total) (eV/Ang**3):
         0.082060    0.000003    0.000003
         0.000003    0.082060    0.000003
         0.000003    0.000003    0.082060

siesta: Pressure (total):       -131.47443919  kBar

                     ====================================
                        Begin CG opt. move =      4
                     ====================================
k-point displ. along   1 input, could be:     0.00    0.50
k-point displ. along   2 input, could be:     0.00    0.50
k-point displ. along   3 input, could be:     0.00    0.50
 Kpoints in:          144 . Kpoints trimmed:          132

siesta: k-grid: Number of k-points = 132
siesta: k-points from Monkhorst-Pack grid
siesta: k-cutoff (effective) =    13.749 Ang
siesta: k-point supercell and displacements
siesta: k-grid:     6     0     0      0.000
siesta: k-grid:     0     6     0      0.000
siesta: k-grid:     0     0     6      0.000

superc: Internal auxiliary supercell:     5 x     5 x     5  =     125
superc: Number of atoms, orbitals, and projectors:    250   3250   1000

outcell: Unit cell vectors (Ang):
       -0.000012    3.240615    3.240615
        3.240615   -0.000012    3.240615
        3.240615    3.240615   -0.000012

outcell: Cell vector modules (Ang)   :    4.582921    4.582921    4.582921
outcell: Cell angles (23,13,12) (deg):     60.0003     60.0003     60.0003
outcell: Cell volume (Ang**3)        :     68.0636
<dSpData1D:S at geom step 4
  <sparsity:sparsity for geom step 4
    nrows_g=26 nrows=14 sparsity=9.1746 nnzs=6202, refcount: 7>
  <dData1D:(new from dSpData1D) n=6202, refcount: 1>
refcount: 1>
new_DM -- step:     5
Re-using DM from previous geometries...
Number of DMs in history: 1
 DM extrapolation coefficients: 
1   1.00000
New DM after history re-use:
<dSpData2D:SpM extrapolated using coords
  <sparsity:sparsity for geom step 4
    nrows_g=26 nrows=14 sparsity=9.1746 nnzs=6202, refcount: 9>
  <dData2D:(temp array for extrapolation) n=6202 m=1, refcount: 1>
refcount: 1>
Note: For starting DM, Qtot, Tr[D*S] =          8.00000000          8.14612767
No. of atoms with KB's overlaping orbs in proc 0. Max # of overlaps:       8      65

InitMesh: MESH = 40 x 40 x 40 = 64000
InitMesh: Mesh cutoff (required, used) =   300.000   315.810 Ry
New grid distribution [1]: sub = 2
New grid distribution [2]: sub = 2
New grid distribution [3]: sub = 2
Setting up quadratic distribution...

        iscf     Eharris(eV)        E_KS(eV)     FreeEng(eV)     dDmax    Ef(eV) dHmax(eV)
   scf:    1     -211.855179     -212.014303     -212.015024  0.053055 -4.457981  0.054024
   scf:    2     -212.014393     -212.014358     -212.015104  0.002552 -4.415365  0.009329
   scf:    3     -212.014371     -212.014365     -212.015107  0.000399 -4.421447  0.000286
   scf:    4     -212.014365     -212.014365     -212.015107  0.000029 -4.421381  0.000214

SCF Convergence by DM+H criterion
max |DM_out - DM_in|         :     0.0000288451
max |H_out - H_in|      (eV) :     0.0002139466
SCF cycle converged after 4 iterations

Using DM_out to compute the final energy and forces
No. of atoms with KB's overlaping orbs in proc 0. Max # of overlaps:       8      65

siesta: E_KS(eV) =             -212.0144

siesta: Atomic forces (eV/Ang):
----------------------------------------
   Tot    0.000000    0.000000    0.000000
----------------------------------------
   Max    0.000037
   Res    0.000037    sqrt( Sum f_i^2 / 3N )
----------------------------------------
   Max    0.000037    constrained

Stress tensor Voigt[x,y,z,yz,xz,xy] (kbar):      136.06      136.06      136.06        0.00        0.00        0.00
(Free)E + p*V (eV/cell)     -217.7953
Target enthalpy (eV/cell)     -212.0151

siesta: Stress tensor (static) (eV/Ang**3):
         0.084924    0.000003    0.000003
         0.000003    0.084924    0.000003
         0.000003    0.000003    0.084924

siesta: Pressure (static):       -136.06252946  kBar

siesta: Stress tensor (total) (eV/Ang**3):
         0.084924    0.000003    0.000003
         0.000003    0.084924    0.000003
         0.000003    0.000003    0.084924

siesta: Pressure (total):       -136.06252946  kBar

                     ====================================
                        Begin CG opt. move =      5
                     ====================================
k-point displ. along   1 input, could be:     0.00    0.50
k-point displ. along   2 input, could be:     0.00    0.50
k-point displ. along   3 input, could be:     0.00    0.50
 Kpoints in:          144 . Kpoints trimmed:          132

siesta: k-grid: Number of k-points = 132
siesta: k-points from Monkhorst-Pack grid
siesta: k-cutoff (effective) =    13.434 Ang
siesta: k-point supercell and displacements
siesta: k-grid:     6     0     0      0.000
siesta: k-grid:     0     6     0      0.000
siesta: k-grid:     0     0     6      0.000

superc: Internal auxiliary supercell:     5 x     5 x     5  =     125
superc: Number of atoms, orbitals, and projectors:    250   3250   1000

outcell: Unit cell vectors (Ang):
       -0.000016    3.166528    3.166528
        3.166528   -0.000016    3.166528
        3.166528    3.166528   -0.000016

outcell: Cell vector modules (Ang)   :    4.478147    4.478147    4.478147
outcell: Cell angles (23,13,12) (deg):     60.0003     60.0003     60.0003
outcell: Cell volume (Ang**3)        :     63.5014
<dSpData1D:S at geom step 5
  <sparsity:sparsity for geom step 5
    nrows_g=26 nrows=14 sparsity=9.3876 nnzs=6346, refcount: 7>
  <dData1D:(new from dSpData1D) n=6346, refcount: 1>
refcount: 1>
new_DM -- step:     6
Re-using DM from previous geometries...
Number of DMs in history: 1
 DM extrapolation coefficients: 
1   1.00000
New DM after history re-use:
<dSpData2D:SpM extrapolated using coords
  <sparsity:sparsity for geom step 5
    nrows_g=26 nrows=14 sparsity=9.3876 nnzs=6346, refcount: 9>
  <dData2D:(temp array for extrapolation) n=6346 m=1, refcount: 1>
refcount: 1>
Note: For starting DM, Qtot, Tr[D*S] =          8.00000000          8.15046248
No. of atoms with KB's overlaping orbs in proc 0. Max # of overlaps:       8      65

InitMesh: MESH = 40 x 40 x 40 = 64000
InitMesh: Mesh cutoff (required, used) =   300.000   330.760 Ry
New grid distribution [1]: sub = 2
New grid distribution [2]: sub = 2
New grid distribution [3]: sub = 2
Setting up quadratic distribution...

        iscf     Eharris(eV)        E_KS(eV)     FreeEng(eV)     dDmax    Ef(eV) dHmax(eV)
   scf:    1     -212.219263     -212.406329     -212.406711  0.057591 -4.446102  0.054107
   scf:    2     -212.406476     -212.406412     -212.406795  0.002410 -4.400577  0.009109
   scf:    3     -212.406419     -212.406416     -212.406798  0.000372 -4.406965  0.000292
   scf:    4     -212.406416     -212.406416     -212.406798  0.000030 -4.406911  0.000220

SCF Convergence by DM+H criterion
max |DM_out - DM_in|         :     0.0000301849
max |H_out - H_in|      (eV) :     0.0002203037
SCF cycle converged after 4 iterations

Using DM_out to compute the final energy and forces
No. of atoms with KB's overlaping orbs in proc 0. Max # of overlaps:       8      65

siesta: E_KS(eV) =             -212.4064

siesta: Atomic forces (eV/Ang):
----------------------------------------
   Tot    0.000000    0.000000    0.000000
----------------------------------------
   Max    0.000098
   Res    0.000098    sqrt( Sum f_i^2 / 3N )
----------------------------------------
   Max    0.000098    constrained

Stress tensor Voigt[x,y,z,yz,xz,xy] (kbar):      138.40      138.40      138.40        0.00        0.00        0.00
(Free)E + p*V (eV/cell)     -217.8923
Target enthalpy (eV/cell)     -212.4068

siesta: Stress tensor (static) (eV/Ang**3):
         0.086384    0.000003    0.000003
         0.000003    0.086384    0.000003
         0.000003    0.000003    0.086384

siesta: Pressure (static):       -138.40314225  kBar

siesta: Stress tensor (total) (eV/Ang**3):
         0.086384    0.000003    0.000003
         0.000003    0.086384    0.000003
         0.000003    0.000003    0.086384

siesta: Pressure (total):       -138.40314225  kBar

                     ====================================
                        Begin CG opt. move =      6
                     ====================================
k-point displ. along   1 input, could be:     0.00    0.50
k-point displ. along   2 input, could be:     0.00    0.50
k-point displ. along   3 input, could be:     0.00    0.50
 Kpoints in:          144 . Kpoints trimmed:          132

siesta: k-grid: Number of k-points = 132
siesta: k-points from Monkhorst-Pack grid
siesta: k-cutoff (effective) =    13.120 Ang
siesta: k-point supercell and displacements
siesta: k-grid:     6     0     0      0.000
siesta: k-grid:     0     6     0      0.000
siesta: k-grid:     0     0     6      0.000

superc: Internal auxiliary supercell:     5 x     5 x     5  =     125
superc: Number of atoms, orbitals, and projectors:    250   3250   1000

outcell: Unit cell vectors (Ang):
       -0.000019    3.092442    3.092442
        3.092442   -0.000019    3.092442
        3.092442    3.092442   -0.000019

outcell: Cell vector modules (Ang)   :    4.373373    4.373373    4.373373
outcell: Cell angles (23,13,12) (deg):     60.0004     60.0004     60.0004
outcell: Cell volume (Ang**3)        :     59.1478
<dSpData1D:S at geom step 6
  <sparsity:sparsity for geom step 6
    nrows_g=26 nrows=14 sparsity=14.9438 nnzs=10102, refcount: 7>
  <dData1D:(new from dSpData1D) n=10102, refcount: 1>
refcount: 1>
new_DM -- step:     7
Re-using DM from previous geometries...
Number of DMs in history: 1
 DM extrapolation coefficients: 
1   1.00000
New DM after history re-use:
<dSpData2D:SpM extrapolated using coords
  <sparsity:sparsity for geom step 6
    nrows_g=26 nrows=14 sparsity=14.9438 nnzs=10102, refcount: 9>
  <dData2D:(temp array for extrapolation) n=10102 m=1, refcount: 1>
refcount: 1>
Note: For starting DM, Qtot, Tr[D*S] =          8.00000000          8.15515895
No. of atoms with KB's overlaping orbs in proc 0. Max # of overlaps:      17     161

InitMesh: MESH = 40 x 40 x 40 = 64000
InitMesh: Mesh cutoff (required, used) =   300.000   346.797 Ry
New grid distribution [1]: sub = 2
New grid distribution [2]: sub = 2
New grid distribution [3]: sub = 2
Setting up quadratic distribution...

        iscf     Eharris(eV)        E_KS(eV)     FreeEng(eV)     dDmax    Ef(eV) dHmax(eV)
   scf:    1     -212.564459     -212.781052     -212.781433  0.061497 -4.455078  0.054710
   scf:    2     -212.781213     -212.781143     -212.781524  0.002524 -4.408289  0.009209
   scf:    3     -212.781150     -212.781147     -212.781528  0.000348 -4.414873  0.000296
   scf:    4     -212.781147     -212.781147     -212.781528  0.000030 -4.414824  0.000224

SCF Convergence by DM+H criterion
max |DM_out - DM_in|         :     0.0000301930
max |H_out - H_in|      (eV) :     0.0002241923
SCF cycle converged after 4 iterations

Using DM_out to compute the final energy and forces
No. of atoms with KB's overlaping orbs in proc 0. Max # of overlaps:      17     161

siesta: E_KS(eV) =             -212.7811

siesta: Atomic forces (eV/Ang):
----------------------------------------
   Tot   -0.000000   -0.000000    0.000000
----------------------------------------
   Max    0.000154
   Res    0.000154    sqrt( Sum f_i^2 / 3N )
----------------------------------------
   Max    0.000154    constrained

Stress tensor Voigt[x,y,z,yz,xz,xy] (kbar):      136.51      136.51      136.51        0.00        0.00        0.00
(Free)E + p*V (eV/cell)     -217.8212
Target enthalpy (eV/cell)     -212.7815

siesta: Stress tensor (static) (eV/Ang**3):
         0.085205    0.000001    0.000001
         0.000001    0.085205    0.000001
         0.000001    0.000001    0.085205

siesta: Pressure (static):       -136.51372281  kBar

siesta: Stress tensor (total) (eV/Ang**3):
         0.085205    0.000001    0.000001
         0.000001    0.085205    0.000001
         0.000001    0.000001    0.085205

siesta: Pressure (total):       -136.51372281  kBar

                     ====================================
                        Begin CG opt. move =      7
                     ====================================
k-point displ. along   1 input, could be:     0.00    0.50
k-point displ. along   2 input, could be:     0.00    0.50
k-point displ. along   3 input, could be:     0.00    0.50
 Kpoints in:          144 . Kpoints trimmed:          132

siesta: k-grid: Number of k-points = 132
siesta: k-points from Monkhorst-Pack grid
siesta: k-cutoff (effective) =    12.806 Ang
siesta: k-point supercell and displacements
siesta: k-grid:     6     0     0      0.000
siesta: k-grid:     0     6     0      0.000
siesta: k-grid:     0     0     6      0.000

superc: Internal auxiliary supercell:     5 x     5 x     5  =     125
superc: Number of atoms, orbitals, and projectors:    250   3250   1000

outcell: Unit cell vectors (Ang):
       -0.000023    3.018355    3.018355
        3.018355   -0.000023    3.018355
        3.018355    3.018355   -0.000023

outcell: Cell vector modules (Ang)   :    4.268599    4.268599    4.268599
outcell: Cell angles (23,13,12) (deg):     60.0005     60.0005     60.0005
outcell: Cell volume (Ang**3)        :     54.9979
<dSpData1D:S at geom step 7
  <sparsity:sparsity for geom step 7
    nrows_g=26 nrows=14 sparsity=14.9438 nnzs=10102, refcount: 7>
  <dData1D:(new from dSpData1D) n=10102, refcount: 1>
refcount: 1>
new_DM -- step:     8
Re-using DM from previous geometries...
Number of DMs in history: 1
 DM extrapolation coefficients: 
1   1.00000
New DM after history re-use:
<dSpData2D:SpM extrapolated using coords
  <sparsity:sparsity for geom step 7
    nrows_g=26 nrows=14 sparsity=14.9438 nnzs=10102, refcount: 9>
  <dData2D:(temp array for extrapolation) n=10102 m=1, refcount: 1>
refcount: 1>
Note: For starting DM, Qtot, Tr[D*S] =          8.00000000          8.15985849
No. of atoms with KB's overlaping orbs in proc 0. Max # of overlaps:      17     161

InitMesh: MESH = 40 x 40 x 40 = 64000
InitMesh: Mesh cutoff (required, used) =   300.000   364.030 Ry
New grid distribution [1]: sub = 2
New grid distribution [2]: sub = 2
New grid distribution [3]: sub = 2
Setting up quadratic distribution...

        iscf     Eharris(eV)        E_KS(eV)     FreeEng(eV)     dDmax    Ef(eV) dHmax(eV)
   scf:    1     -212.881585     -213.126828     -213.126869  0.080268 -4.367364  0.054358
   scf:    2     -213.127000     -213.126925     -213.126963  0.003296 -4.317655  0.008917
   scf:    3     -213.126930     -213.126928     -213.126966  0.000415 -4.324519  0.000348
   scf:    4     -213.126928     -213.126928     -213.126966  0.000032 -4.324498  0.000265

SCF Convergence by DM+H criterion
max |DM_out - DM_in|         :     0.0000322159
max |H_out - H_in|      (eV) :     0.0002647030
SCF cycle converged after 4 iterations

Using DM_out to compute the final energy and forces
No. of atoms with KB's overlaping orbs in proc 0. Max # of overlaps:      17     161

siesta: E_KS(eV) =             -213.1269

siesta: Atomic forces (eV/Ang):
----------------------------------------
   Tot    0.000000    0.000000    0.000000
----------------------------------------
   Max    0.000399
   Res    0.000399    sqrt( Sum f_i^2 / 3N )
----------------------------------------
   Max    0.000399    constrained

Stress tensor Voigt[x,y,z,yz,xz,xy] (kbar):      129.86      129.86      129.86       -0.00       -0.00       -0.00
(Free)E + p*V (eV/cell)     -217.5846
Target enthalpy (eV/cell)     -213.1270

siesta: Stress tensor (static) (eV/Ang**3):
         0.081052   -0.000001   -0.000001
        -0.000001    0.081052   -0.000001
        -0.000001   -0.000001    0.081052

siesta: Pressure (static):       -129.85931285  kBar

siesta: Stress tensor (total) (eV/Ang**3):
         0.081052   -0.000001   -0.000001
        -0.000001    0.081052   -0.000001
        -0.000001   -0.000001    0.081052

siesta: Pressure (total):       -129.85931285  kBar

                     ====================================
                        Begin CG opt. move =      8
                     ====================================
k-point displ. along   1 input, could be:     0.00    0.50
k-point displ. along   2 input, could be:     0.00    0.50
k-point displ. along   3 input, could be:     0.00    0.50
 Kpoints in:          144 . Kpoints trimmed:          132

siesta: k-grid: Number of k-points = 132
siesta: k-points from Monkhorst-Pack grid
siesta: k-cutoff (effective) =    12.491 Ang
siesta: k-point supercell and displacements
siesta: k-grid:     6     0     0      0.000
siesta: k-grid:     0     6     0      0.000
siesta: k-grid:     0     0     6      0.000

superc: Internal auxiliary supercell:     5 x     5 x     5  =     125
superc: Number of atoms, orbitals, and projectors:    250   3250   1000

outcell: Unit cell vectors (Ang):
       -0.000026    2.944269    2.944269
        2.944269   -0.000026    2.944269
        2.944269    2.944269   -0.000026

outcell: Cell vector modules (Ang)   :    4.163825    4.163825    4.163825
outcell: Cell angles (23,13,12) (deg):     60.0006     60.0006     60.0006
outcell: Cell volume (Ang**3)        :     51.0468
<dSpData1D:S at geom step 8
  <sparsity:sparsity for geom step 8
    nrows_g=26 nrows=14 sparsity=14.9970 nnzs=10138, refcount: 7>
  <dData1D:(new from dSpData1D) n=10138, refcount: 1>
refcount: 1>
new_DM -- step:     9
Re-using DM from previous geometries...
Number of DMs in history: 1
 DM extrapolation coefficients: 
1   1.00000
New DM after history re-use:
<dSpData2D:SpM extrapolated using coords
  <sparsity:sparsity for geom step 8
    nrows_g=26 nrows=14 sparsity=14.9970 nnzs=10138, refcount: 9>
  <dData2D:(temp array for extrapolation) n=10138 m=1, refcount: 1>
refcount: 1>
Note: For starting DM, Qtot, Tr[D*S] =          8.00000000          8.16473264
No. of atoms with KB's overlaping orbs in proc 0. Max # of overlaps:      17     161

InitMesh: MESH = 36 x 36 x 36 = 46656
InitMesh: Mesh cutoff (required, used) =   300.000   309.890 Ry
New grid distribution [1]: sub = 2
New grid distribution [2]: sub = 2
New grid distribution [3]: sub = 2
Setting up quadratic distribution...

        iscf     Eharris(eV)        E_KS(eV)     FreeEng(eV)     dDmax    Ef(eV) dHmax(eV)
   scf:    1     -213.149657     -213.427659     -213.427659  0.078071 -4.053393  0.056503
   scf:    2     -213.427857     -213.427772     -213.427772  0.004385 -4.009199  0.009618
   scf:    3     -213.427780     -213.427776     -213.427776  0.000594 -4.015507  0.000332
   scf:    4     -213.427776     -213.427776     -213.427776  0.000028 -4.015463  0.000253

SCF Convergence by DM+H criterion
max |DM_out - DM_in|         :     0.0000276745
max |H_out - H_in|      (eV) :     0.0002529371
SCF cycle converged after 4 iterations

Using DM_out to compute the final energy and forces
No. of atoms with KB's overlaping orbs in proc 0. Max # of overlaps:      17     161

siesta: E_KS(eV) =             -213.4278

siesta: Atomic forces (eV/Ang):
----------------------------------------
   Tot   -0.000000   -0.000000   -0.000000
----------------------------------------
   Max    0.000532
   Res    0.000532    sqrt( Sum f_i^2 / 3N )
----------------------------------------
   Max    0.000532    constrained

Stress tensor Voigt[x,y,z,yz,xz,xy] (kbar):      111.95      111.95      111.95       -0.01       -0.01       -0.01
(Free)E + p*V (eV/cell)     -216.9945
Target enthalpy (eV/cell)     -213.4278

siesta: Stress tensor (static) (eV/Ang**3):
         0.069873   -0.000003   -0.000003
        -0.000003    0.069873   -0.000003
        -0.000003   -0.000003    0.069873

siesta: Pressure (static):       -111.94822371  kBar

siesta: Stress tensor (total) (eV/Ang**3):
         0.069873   -0.000003   -0.000003
        -0.000003    0.069873   -0.000003
        -0.000003   -0.000003    0.069873

siesta: Pressure (total):       -111.94822371  kBar

                     ====================================
                        Begin CG opt. move =      9
                     ====================================
k-point displ. along   1 input, could be:     0.00    0.50
k-point displ. along   2 input, could be:     0.00    0.50
k-point displ. along   3 input, could be:     0.00    0.50
 Kpoints in:          144 . Kpoints trimmed:          132

siesta: k-grid: Number of k-points = 132
siesta: k-points from Monkhorst-Pack grid
siesta: k-cutoff (effective) =    12.177 Ang
siesta: k-point supercell and displacements
siesta: k-grid:     6     0     0      0.000
siesta: k-grid:     0     6     0      0.000
siesta: k-grid:     0     0     6      0.000

superc: Internal auxiliary supercell:     5 x     5 x     5  =     125
superc: Number of atoms, orbitals, and projectors:    250   3250   1000

outcell: Unit cell vectors (Ang):
       -0.000030    2.870182    2.870182
        2.870182   -0.000030    2.870182
        2.870182    2.870182   -0.000030

outcell: Cell vector modules (Ang)   :    4.059051    4.059051    4.059051
outcell: Cell angles (23,13,12) (deg):     60.0007     60.0007     60.0007
outcell: Cell volume (Ang**3)        :     47.2895
<dSpData1D:S at geom step 9
  <sparsity:sparsity for geom step 9
    nrows_g=26 nrows=14 sparsity=14.9970 nnzs=10138, refcount: 7>
  <dData1D:(new from dSpData1D) n=10138, refcount: 1>
refcount: 1>
new_DM -- step:    10
Re-using DM from previous geometries...
Number of DMs in history: 1
 DM extrapolation coefficients: 
1   1.00000
New DM after history re-use:
<dSpData2D:SpM extrapolated using coords
  <sparsity:sparsity for geom step 9
    nrows_g=26 nrows=14 sparsity=14.9970 nnzs=10138, refcount: 9>
  <dData2D:(temp array for extrapolation) n=10138 m=1, refcount: 1>
refcount: 1>
Note: For starting DM, Qtot, Tr[D*S] =          8.00000000          8.16661849
No. of atoms with KB's overlaping orbs in proc 0. Max # of overlaps:      17     161

InitMesh: MESH = 36 x 36 x 36 = 46656
InitMesh: Mesh cutoff (required, used) =   300.000   326.093 Ry
New grid distribution [1]: sub = 2
New grid distribution [2]: sub = 2
New grid distribution [3]: sub = 2
Setting up quadratic distribution...

        iscf     Eharris(eV)        E_KS(eV)     FreeEng(eV)     dDmax    Ef(eV) dHmax(eV)
   scf:    1     -213.330517     -213.657491     -213.657491  0.087047 -3.968177  0.058304
   scf:    2     -213.657726     -213.657625     -213.657625  0.005696 -3.921796  0.010317
   scf:    3     -213.657636     -213.657631     -213.657631  0.000818 -3.928624  0.000326
   scf:    4     -213.657631     -213.657631     -213.657631  0.000022 -3.928584  0.000248

SCF Convergence by DM+H criterion
max |DM_out - DM_in|         :     0.0000218732
max |H_out - H_in|      (eV) :     0.0002482001
SCF cycle converged after 4 iterations

Using DM_out to compute the final energy and forces
No. of atoms with KB's overlaping orbs in proc 0. Max # of overlaps:      17     161

siesta: E_KS(eV) =             -213.6576

siesta: Atomic forces (eV/Ang):
----------------------------------------
   Tot    0.000000    0.000000    0.000000
----------------------------------------
   Max    0.000704
   Res    0.000704    sqrt( Sum f_i^2 / 3N )
----------------------------------------
   Max    0.000704    constrained

Stress tensor Voigt[x,y,z,yz,xz,xy] (kbar):       81.43       81.43       81.43       -0.01       -0.01       -0.01
(Free)E + p*V (eV/cell)     -216.0610
Target enthalpy (eV/cell)     -213.6576

siesta: Stress tensor (static) (eV/Ang**3):
         0.050823   -0.000008   -0.000008
        -0.000008    0.050823   -0.000008
        -0.000008   -0.000008    0.050823

siesta: Pressure (static):        -81.42793436  kBar

siesta: Stress tensor (total) (eV/Ang**3):
         0.050823   -0.000008   -0.000008
        -0.000008    0.050823   -0.000008
        -0.000008   -0.000008    0.050823

siesta: Pressure (total):        -81.42793436  kBar

                     ====================================
                        Begin CG opt. move =     10
                     ====================================
k-point displ. along   1 input, could be:     0.00    0.50
k-point displ. along   2 input, could be:     0.00    0.50
k-point displ. along   3 input, could be:     0.00    0.50
 Kpoints in:          144 . Kpoints trimmed:          132

siesta: k-grid: Number of k-points = 132
siesta: k-points from Monkhorst-Pack grid
siesta: k-cutoff (effective) =    11.863 Ang
siesta: k-point supercell and displacements
siesta: k-grid:     6     0     0      0.000
siesta: k-grid:     0     6     0      0.000
siesta: k-grid:     0     0     6      0.000

superc: Internal auxiliary supercell:     5 x     5 x     5  =     125
superc: Number of atoms, orbitals, and projectors:    250   3250   1000

outcell: Unit cell vectors (Ang):
       -0.000033    2.796096    2.796096
        2.796096   -0.000033    2.796096
        2.796096    2.796096   -0.000033

outcell: Cell vector modules (Ang)   :    3.954276    3.954276    3.954276
outcell: Cell angles (23,13,12) (deg):     60.0008     60.0008     60.0008
outcell: Cell volume (Ang**3)        :     43.7214
<dSpData1D:S at geom step 10
  <sparsity:sparsity for geom step 10
    nrows_g=26 nrows=14 sparsity=15.2633 nnzs=10318, refcount: 7>
  <dData1D:(new from dSpData1D) n=10318, refcount: 1>
refcount: 1>
new_DM -- step:    11
Re-using DM from previous geometries...
Number of DMs in history: 1
 DM extrapolation coefficients: 
1   1.00000
New DM after history re-use:
<dSpData2D:SpM extrapolated using coords
  <sparsity:sparsity for geom step 10
    nrows_g=26 nrows=14 sparsity=15.2633 nnzs=10318, refcount: 9>
  <dData2D:(temp array for extrapolation) n=10318 m=1, refcount: 1>
refcount: 1>
Note: For starting DM, Qtot, Tr[D*S] =          8.00000000          8.16717718
No. of atoms with KB's overlaping orbs in proc 0. Max # of overlaps:      17     161

InitMesh: MESH = 36 x 36 x 36 = 46656
InitMesh: Mesh cutoff (required, used) =   300.000   343.602 Ry
New grid distribution [1]: sub = 2
New grid distribution [2]: sub = 2
New grid distribution [3]: sub = 2
Setting up quadratic distribution...

        iscf     Eharris(eV)        E_KS(eV)     FreeEng(eV)     dDmax    Ef(eV) dHmax(eV)
   scf:    1     -213.399886     -213.790733     -213.790733  0.088990 -4.014188  0.059646
   scf:    2     -213.791006     -213.790889     -213.790889  0.007168 -3.965532  0.011001
   scf:    3     -213.790902     -213.790896     -213.790896  0.001081 -3.972931  0.000319
   scf:    4     -213.790896     -213.790896     -213.790896  0.000016 -3.972890  0.000243

SCF Convergence by DM+H criterion
max |DM_out - DM_in|         :     0.0000162762
max |H_out - H_in|      (eV) :     0.0002432152
SCF cycle converged after 4 iterations

Using DM_out to compute the final energy and forces
No. of atoms with KB's overlaping orbs in proc 0. Max # of overlaps:      17     161

siesta: E_KS(eV) =             -213.7909

siesta: Atomic forces (eV/Ang):
----------------------------------------
   Tot    0.000000    0.000000   -0.000000
----------------------------------------
   Max    0.000920
   Res    0.000920    sqrt( Sum f_i^2 / 3N )
----------------------------------------
   Max    0.000920    constrained

Stress tensor Voigt[x,y,z,yz,xz,xy] (kbar):       34.51       34.51       34.51       -0.03       -0.03       -0.03
(Free)E + p*V (eV/cell)     -214.7326
Target enthalpy (eV/cell)     -213.7909

siesta: Stress tensor (static) (eV/Ang**3):
         0.021538   -0.000016   -0.000016
        -0.000016    0.021538   -0.000016
        -0.000016   -0.000016    0.021538

siesta: Pressure (static):        -34.50845168  kBar

siesta: Stress tensor (total) (eV/Ang**3):
         0.021538   -0.000016   -0.000016
        -0.000016    0.021538   -0.000016
        -0.000016   -0.000016    0.021538

siesta: Pressure (total):        -34.50845168  kBar

                     ====================================
                        Begin CG opt. move =     11
                     ====================================
k-point displ. along   1 input, could be:     0.00    0.50
k-point displ. along   2 input, could be:     0.00    0.50
k-point displ. along   3 input, could be:     0.00    0.50
 Kpoints in:          144 . Kpoints trimmed:          132

siesta: k-grid: Number of k-points = 132
siesta: k-points from Monkhorst-Pack grid
siesta: k-cutoff (effective) =    11.549 Ang
siesta: k-point supercell and displacements
siesta: k-grid:     6     0     0      0.000
siesta: k-grid:     0     6     0      0.000
siesta: k-grid:     0     0     6      0.000

superc: Internal auxiliary supercell:     5 x     5 x     5  =     125
superc: Number of atoms, orbitals, and projectors:    250   3250   1000

outcell: Unit cell vectors (Ang):
       -0.000037    2.722009    2.722009
        2.722009   -0.000037    2.722009
        2.722009    2.722009   -0.000037

outcell: Cell vector modules (Ang)   :    3.849502    3.849502    3.849502
outcell: Cell angles (23,13,12) (deg):     60.0009     60.0009     60.0009
outcell: Cell volume (Ang**3)        :     40.3374
<dSpData1D:S at geom step 11
  <sparsity:sparsity for geom step 11
    nrows_g=26 nrows=14 sparsity=16.8580 nnzs=11396, refcount: 7>
  <dData1D:(new from dSpData1D) n=11396, refcount: 1>
refcount: 1>
new_DM -- step:    12
Re-using DM from previous geometries...
Number of DMs in history: 1
 DM extrapolation coefficients: 
1   1.00000
New DM after history re-use:
<dSpData2D:SpM extrapolated using coords
  <sparsity:sparsity for geom step 11
    nrows_g=26 nrows=14 sparsity=16.8580 nnzs=11396, refcount: 9>
  <dData2D:(temp array for extrapolation) n=11396 m=1, refcount: 1>
refcount: 1>
Note: For starting DM, Qtot, Tr[D*S] =          8.00000000          8.16702061
No. of atoms with KB's overlaping orbs in proc 0. Max # of overlaps:      17     161

InitMesh: MESH = 36 x 36 x 36 = 46656
InitMesh: Mesh cutoff (required, used) =   300.000   362.560 Ry
New grid distribution [1]: sub = 2
New grid distribution [2]: sub = 2
New grid distribution [3]: sub = 2
Setting up quadratic distribution...

        iscf     Eharris(eV)        E_KS(eV)     FreeEng(eV)     dDmax    Ef(eV) dHmax(eV)
   scf:    1     -213.326497     -213.795380     -213.795380  0.081236 -4.056356  0.059613
   scf:    2     -213.795679     -213.795552     -213.795552  0.008484 -4.016620  0.011362
   scf:    3     -213.795567     -213.795561     -213.795561  0.001319 -4.022914  0.000330
   scf:    4     -213.795561     -213.795561     -213.795561  0.000014 -4.022855  0.000252

SCF Convergence by DM+H criterion
max |DM_out - DM_in|         :     0.0000137437
max |H_out - H_in|      (eV) :     0.0002519436
SCF cycle converged after 4 iterations

Using DM_out to compute the final energy and forces
No. of atoms with KB's overlaping orbs in proc 0. Max # of overlaps:      17     161

siesta: E_KS(eV) =             -213.7956

siesta: Atomic forces (eV/Ang):
----------------------------------------
   Tot   -0.000000   -0.000000   -0.000000
----------------------------------------
   Max    0.001202
   Res    0.001202    sqrt( Sum f_i^2 / 3N )
----------------------------------------
   Max    0.001202    constrained

Stress tensor Voigt[x,y,z,yz,xz,xy] (kbar):      -35.24      -35.24      -35.24       -0.04       -0.04       -0.04
(Free)E + p*V (eV/cell)     -212.9082
Target enthalpy (eV/cell)     -213.7956

siesta: Stress tensor (static) (eV/Ang**3):
        -0.021997   -0.000027   -0.000027
        -0.000027   -0.021997   -0.000027
        -0.000027   -0.000027   -0.021997

siesta: Pressure (static):         35.24368691  kBar

siesta: Stress tensor (total) (eV/Ang**3):
        -0.021997   -0.000027   -0.000027
        -0.000027   -0.021997   -0.000027
        -0.000027   -0.000027   -0.021997

siesta: Pressure (total):         35.24368691  kBar

                     ====================================
                        Begin CG opt. move =     12
                     ====================================
k-point displ. along   1 input, could be:     0.00    0.50
k-point displ. along   2 input, could be:     0.00    0.50
k-point displ. along   3 input, could be:     0.00    0.50
 Kpoints in:          144 . Kpoints trimmed:          132

siesta: k-grid: Number of k-points = 132
siesta: k-points from Monkhorst-Pack grid
siesta: k-cutoff (effective) =    11.701 Ang
siesta: k-point supercell and displacements
siesta: k-grid:     6     0     0      0.000
siesta: k-grid:     0     6     0      0.000
siesta: k-grid:     0     0     6      0.000

superc: Internal auxiliary supercell:     5 x     5 x     5  =     125
superc: Number of atoms, orbitals, and projectors:    250   3250   1000

outcell: Unit cell vectors (Ang):
       -0.000035    2.757951    2.757951
        2.757951   -0.000035    2.757951
        2.757951    2.757951   -0.000035

outcell: Cell vector modules (Ang)   :    3.900332    3.900332    3.900332
outcell: Cell angles (23,13,12) (deg):     60.0008     60.0008     60.0008
outcell: Cell volume (Ang**3)        :     41.9564
<dSpData1D:S at geom step 12
  <sparsity:sparsity for geom step 12
    nrows_g=26 nrows=14 sparsity=16.7781 nnzs=11342, refcount: 7>
  <dData1D:(new from dSpData1D) n=11342, refcount: 1>
refcount: 1>
new_DM -- step:    13
Re-using DM from previous geometries...
Number of DMs in history: 1
 DM extrapolation coefficients: 
1   1.00000
New DM after history re-use:
<dSpData2D:SpM extrapolated using coords
  <sparsity:sparsity for geom step 12
    nrows_g=26 nrows=14 sparsity=16.7781 nnzs=11342, refcount: 9>
  <dData2D:(temp array for extrapolation) n=11342 m=1, refcount: 1>
refcount: 1>
Note: For starting DM, Qtot, Tr[D*S] =          8.00000000          7.91721783
No. of atoms with KB's overlaping orbs in proc 0. Max # of overlaps:      17     161

InitMesh: MESH = 36 x 36 x 36 = 46656
InitMesh: Mesh cutoff (required, used) =   300.000   353.172 Ry
New grid distribution [1]: sub = 2
New grid distribution [2]: sub = 2
New grid distribution [3]: sub = 2
Setting up quadratic distribution...

        iscf     Eharris(eV)        E_KS(eV)     FreeEng(eV)     dDmax    Ef(eV) dHmax(eV)
   scf:    1     -214.058385     -213.811735     -213.811735  0.038160 -3.974877  0.029006
   scf:    2     -213.811801     -213.811773     -213.811773  0.003836 -3.999198  0.005367
   scf:    3     -213.811776     -213.811775     -213.811775  0.000575 -3.995535  0.000174
   scf:    4     -213.811775     -213.811775     -213.811775  0.000007 -3.995565  0.000133

SCF Convergence by DM+H criterion
max |DM_out - DM_in|         :     0.0000068675
max |H_out - H_in|      (eV) :     0.0001327176
SCF cycle converged after 4 iterations

Using DM_out to compute the final energy and forces
No. of atoms with KB's overlaping orbs in proc 0. Max # of overlaps:      17     161

siesta: E_KS(eV) =             -213.8118

siesta: Atomic forces (eV/Ang):
----------------------------------------
   Tot   -0.000000    0.000000    0.000000
----------------------------------------
   Max    0.001062
   Res    0.001062    sqrt( Sum f_i^2 / 3N )
----------------------------------------
   Max    0.001062    constrained

Stress tensor Voigt[x,y,z,yz,xz,xy] (kbar):        2.00        2.00        2.00       -0.03       -0.03       -0.03
(Free)E + p*V (eV/cell)     -213.8641
Target enthalpy (eV/cell)     -213.8118

siesta: Stress tensor (static) (eV/Ang**3):
         0.001248   -0.000021   -0.000021
        -0.000021    0.001248   -0.000021
        -0.000021   -0.000021    0.001248

siesta: Pressure (static):         -1.99990876  kBar

siesta: Stress tensor (total) (eV/Ang**3):
         0.001248   -0.000021   -0.000021
        -0.000021    0.001248   -0.000021
        -0.000021   -0.000021    0.001248

siesta: Pressure (total):         -1.99990876  kBar

cgvc: Finished line minimization    1.  Mean atomic displacement =    0.3489

                     ====================================
                        Begin CG opt. move =     13
                     ====================================
k-point displ. along   1 input, could be:     0.00    0.50
k-point displ. along   2 input, could be:     0.00    0.50
k-point displ. along   3 input, could be:     0.00    0.50
 Kpoints in:          144 . Kpoints trimmed:          132

siesta: k-grid: Number of k-points = 132
siesta: k-points from Monkhorst-Pack grid
siesta: k-cutoff (effective) =    11.630 Ang
siesta: k-point supercell and displacements
siesta: k-grid:     6     0     0      0.000
siesta: k-grid:     0     6     0      0.000
siesta: k-grid:     0     0     6      0.000

superc: Internal auxiliary supercell:     5 x     5 x     5  =     125
superc: Number of atoms, orbitals, and projectors:    250   3250   1000

outcell: Unit cell vectors (Ang):
        0.022303    2.763443    2.763444
        2.763443    0.022303    2.763444
        2.763443    2.763443    0.022303

outcell: Cell vector modules (Ang)   :    3.908163    3.908163    3.908162
outcell: Cell angles (23,13,12) (deg):     59.4657     59.4657     59.4657
outcell: Cell volume (Ang**3)        :     41.6958
<dSpData1D:S at geom step 13
  <sparsity:sparsity for geom step 13
    nrows_g=26 nrows=14 sparsity=16.8314 nnzs=11378, refcount: 7>
  <dData1D:(new from dSpData1D) n=11378, refcount: 1>
refcount: 1>
new_DM -- step:    14
Re-using DM from previous geometries...
Number of DMs in history: 1
 DM extrapolation coefficients: 
1   1.00000
New DM after history re-use:
<dSpData2D:SpM extrapolated using coords
  <sparsity:sparsity for geom step 13
    nrows_g=26 nrows=14 sparsity=16.8314 nnzs=11378, refcount: 9>
  <dData2D:(temp array for extrapolation) n=11378 m=1, refcount: 1>
refcount: 1>
Note: For starting DM, Qtot, Tr[D*S] =          8.00000000          7.84637856
No. of atoms with KB's overlaping orbs in proc 0. Max # of overlaps:      20     185

InitMesh: MESH = 36 x 36 x 36 = 46656
InitMesh: Mesh cutoff (required, used) =   300.000   348.955 Ry
New grid distribution [1]: sub = 2
New grid distribution [2]: sub = 2
New grid distribution [3]: sub = 2
Setting up quadratic distribution...

        iscf     Eharris(eV)        E_KS(eV)     FreeEng(eV)     dDmax    Ef(eV) dHmax(eV)
   scf:    1     -212.837899     -213.120205     -213.122593  0.041718 -3.734563  0.131080
   scf:    2     -213.123289     -213.125193     -213.126524  0.016251 -3.794369  0.052522
   scf:    3     -213.128211     -213.127026     -213.128932  0.004681 -3.772638  0.025092
   scf:    4     -213.127003     -213.127023     -213.129034  0.000565 -3.775952  0.018869
   scf:    5     -213.126856     -213.126949     -213.129064  0.001036 -3.781728  0.008042
   scf:    6     -213.126961     -213.126955     -213.129067  0.000379 -3.783611  0.004376
   scf:    7     -213.126994     -213.126975     -213.129070  0.000486 -3.785993  0.000776
   scf:    8     -213.126990     -213.126982     -213.129070  0.000020 -3.786082  0.000391

SCF Convergence by DM+H criterion
max |DM_out - DM_in|         :     0.0000203796
max |H_out - H_in|      (eV) :     0.0003907232
SCF cycle converged after 8 iterations

Using DM_out to compute the final energy and forces
No. of atoms with KB's overlaping orbs in proc 0. Max # of overlaps:      20     185

siesta: E_KS(eV) =             -213.1270

siesta: Atomic forces (eV/Ang):
----------------------------------------
   Tot   -0.000000    0.000000    0.000000
----------------------------------------
   Max    1.186313
   Res    1.186309    sqrt( Sum f_i^2 / 3N )
----------------------------------------
   Max    1.186313    constrained

Stress tensor Voigt[x,y,z,yz,xz,xy] (kbar):      -35.47      -35.47      -35.47       59.90       59.90       59.90
(Free)E + p*V (eV/cell)     -212.2059
Target enthalpy (eV/cell)     -213.1291

siesta: Stress tensor (static) (eV/Ang**3):
        -0.022140    0.037386    0.037386
         0.037386   -0.022140    0.037386
         0.037386    0.037386   -0.022141

siesta: Pressure (static):         35.47299610  kBar

siesta: Stress tensor (total) (eV/Ang**3):
        -0.022140    0.037386    0.037386
         0.037386   -0.022140    0.037386
         0.037386    0.037386   -0.022141

siesta: Pressure (total):         35.47299610  kBar

                     ====================================
                        Begin CG opt. move =     14
                     ====================================
k-point displ. along   1 input, could be:     0.00    0.50
k-point displ. along   2 input, could be:     0.00    0.50
k-point displ. along   3 input, could be:     0.00    0.50
 Kpoints in:          144 . Kpoints trimmed:          132

siesta: k-grid: Number of k-points = 132
siesta: k-points from Monkhorst-Pack grid
siesta: k-cutoff (effective) =    11.701 Ang
siesta: k-point supercell and displacements
siesta: k-grid:     6     0     0      0.000
siesta: k-grid:     0     6     0      0.000
siesta: k-grid:     0     0     6      0.000

superc: Internal auxiliary supercell:     5 x     5 x     5  =     125
superc: Number of atoms, orbitals, and projectors:    250   3250   1000

outcell: Unit cell vectors (Ang):
       -0.000009    2.757958    2.757958
        2.757958   -0.000009    2.757958
        2.757958    2.757958   -0.000009

outcell: Cell vector modules (Ang)   :    3.900341    3.900341    3.900341
outcell: Cell angles (23,13,12) (deg):     60.0002     60.0002     60.0002
outcell: Cell volume (Ang**3)        :     41.9561
<dSpData1D:S at geom step 14
  <sparsity:sparsity for geom step 14
    nrows_g=26 nrows=14 sparsity=16.7781 nnzs=11342, refcount: 7>
  <dData1D:(new from dSpData1D) n=11342, refcount: 1>
refcount: 1>
new_DM -- step:    15
Re-using DM from previous geometries...
Number of DMs in history: 1
 DM extrapolation coefficients: 
1   1.00000
New DM after history re-use:
<dSpData2D:SpM extrapolated using coords
  <sparsity:sparsity for geom step 14
    nrows_g=26 nrows=14 sparsity=16.7781 nnzs=11342, refcount: 9>
  <dData2D:(temp array for extrapolation) n=11342 m=1, refcount: 1>
refcount: 1>
Note: For starting DM, Qtot, Tr[D*S] =          8.00000000          7.90987545
No. of atoms with KB's overlaping orbs in proc 0. Max # of overlaps:      17     161

InitMesh: MESH = 36 x 36 x 36 = 46656
InitMesh: Mesh cutoff (required, used) =   300.000   353.176 Ry
New grid distribution [1]: sub = 2
New grid distribution [2]: sub = 2
New grid distribution [3]: sub = 2
Setting up quadratic distribution...

        iscf     Eharris(eV)        E_KS(eV)     FreeEng(eV)     dDmax    Ef(eV) dHmax(eV)
   scf:    1     -214.287324     -213.810521     -213.810521  0.041773 -4.045452  0.116127
   scf:    2     -213.812179     -213.811622     -213.811622  0.015049 -3.979894  0.023548
   scf:    3     -213.811879     -213.811767     -213.811767  0.003044 -3.998292  0.004705
   scf:    4     -213.811776     -213.811771     -213.811771  0.000149 -3.997622  0.003556
   scf:    5     -213.811777     -213.811775     -213.811775  0.000306 -3.996202  0.001128
   scf:    6     -213.811775     -213.811775     -213.811775  0.000050 -3.995972  0.000737

SCF Convergence by DM+H criterion
max |DM_out - DM_in|         :     0.0000500941
max |H_out - H_in|      (eV) :     0.0007371327
SCF cycle converged after 6 iterations

Using DM_out to compute the final energy and forces
No. of atoms with KB's overlaping orbs in proc 0. Max # of overlaps:      17     161

siesta: E_KS(eV) =             -213.8118

siesta: Atomic forces (eV/Ang):
----------------------------------------
   Tot   -0.000000    0.000000   -0.000000
----------------------------------------
   Max    0.002781
   Res    0.002781    sqrt( Sum f_i^2 / 3N )
----------------------------------------
   Max    0.002781    constrained

Stress tensor Voigt[x,y,z,yz,xz,xy] (kbar):        1.95        1.95        1.95        0.07        0.07        0.07
(Free)E + p*V (eV/cell)     -213.8629
Target enthalpy (eV/cell)     -213.8118

siesta: Stress tensor (static) (eV/Ang**3):
         0.001218    0.000046    0.000046
         0.000046    0.001218    0.000046
         0.000046    0.000046    0.001218

siesta: Pressure (static):         -1.95159807  kBar

siesta: Stress tensor (total) (eV/Ang**3):
         0.001218    0.000046    0.000046
         0.000046    0.001218    0.000046
         0.000046    0.000046    0.001218

siesta: Pressure (total):         -1.95159807  kBar

cgvc: Finished line minimization    2.  Mean atomic displacement =    0.0004

                     ====================================
                        Begin CG opt. move =     15
                     ====================================
k-point displ. along   1 input, could be:     0.00    0.50
k-point displ. along   2 input, could be:     0.00    0.50
k-point displ. along   3 input, could be:     0.00    0.50
 Kpoints in:          144 . Kpoints trimmed:          132

siesta: k-grid: Number of k-points = 132
siesta: k-points from Monkhorst-Pack grid
siesta: k-cutoff (effective) =    11.701 Ang
siesta: k-point supercell and displacements
siesta: k-grid:     6     0     0      0.000
siesta: k-grid:     0     6     0      0.000
siesta: k-grid:     0     0     6      0.000

superc: Internal auxiliary supercell:     5 x     5 x     5  =     125
superc: Number of atoms, orbitals, and projectors:    250   3250   1000

outcell: Unit cell vectors (Ang):
       -0.000017    2.757838    2.757838
        2.757838   -0.000017    2.757838
        2.757838    2.757838   -0.000017

outcell: Cell vector modules (Ang)   :    3.900173    3.900173    3.900173
outcell: Cell angles (23,13,12) (deg):     60.0004     60.0004     60.0004
outcell: Cell volume (Ang**3)        :     41.9508
<dSpData1D:S at geom step 15
  <sparsity:sparsity for geom step 15
    nrows_g=26 nrows=14 sparsity=16.7781 nnzs=11342, refcount: 7>
  <dData1D:(new from dSpData1D) n=11342, refcount: 1>
refcount: 1>
new_DM -- step:    16
Re-using DM from previous geometries...
Number of DMs in history: 1
 DM extrapolation coefficients: 
1   1.00000
New DM after history re-use:
<dSpData2D:SpM extrapolated using coords
  <sparsity:sparsity for geom step 15
    nrows_g=26 nrows=14 sparsity=16.7781 nnzs=11342, refcount: 9>
  <dData2D:(temp array for extrapolation) n=11342 m=1, refcount: 1>
refcount: 1>
No. of atoms with KB's overlaping orbs in proc 0. Max # of overlaps:      17     161

InitMesh: MESH = 36 x 36 x 36 = 46656
InitMesh: Mesh cutoff (required, used) =   300.000   353.204 Ry
New grid distribution [1]: sub = 2
New grid distribution [2]: sub = 2
New grid distribution [3]: sub = 2
Setting up quadratic distribution...

        iscf     Eharris(eV)        E_KS(eV)     FreeEng(eV)     dDmax    Ef(eV) dHmax(eV)
   scf:    1     -213.811035     -213.811782     -213.811782  0.000040 -3.996247  0.000021

SCF Convergence by DM+H criterion
max |DM_out - DM_in|         :     0.0000403021
max |H_out - H_in|      (eV) :     0.0000205104
SCF cycle converged after 1 iterations

Using DM_out to compute the final energy and forces
No. of atoms with KB's overlaping orbs in proc 0. Max # of overlaps:      17     161

siesta: E_KS(eV) =             -213.8118

siesta: Atomic forces (eV/Ang):
----------------------------------------
   Tot   -0.000000   -0.000000    0.000000
----------------------------------------
   Max    0.001299
   Res    0.001299    sqrt( Sum f_i^2 / 3N )
----------------------------------------
   Max    0.001299    constrained

Stress tensor Voigt[x,y,z,yz,xz,xy] (kbar):        1.87        1.87        1.87        0.03        0.03        0.03
(Free)E + p*V (eV/cell)     -213.8608
Target enthalpy (eV/cell)     -213.8118

siesta: Stress tensor (static) (eV/Ang**3):
         0.001170    0.000021    0.000021
         0.000021    0.001170    0.000021
         0.000021    0.000021    0.001170

siesta: Pressure (static):         -1.87376748  kBar

siesta: Stress tensor (total) (eV/Ang**3):
         0.001170    0.000021    0.000021
         0.000021    0.001170    0.000021
         0.000021    0.000021    0.001170

siesta: Pressure (total):         -1.87376748  kBar

                     ====================================
                        Begin CG opt. move =     16
                     ====================================
k-point displ. along   1 input, could be:     0.00    0.50
k-point displ. along   2 input, could be:     0.00    0.50
k-point displ. along   3 input, could be:     0.00    0.50
 Kpoints in:          144 . Kpoints trimmed:          132

siesta: k-grid: Number of k-points = 132
siesta: k-points from Monkhorst-Pack grid
siesta: k-cutoff (effective) =    11.700 Ang
siesta: k-point supercell and displacements
siesta: k-grid:     6     0     0      0.000
siesta: k-grid:     0     6     0      0.000
siesta: k-grid:     0     0     6      0.000

superc: Internal auxiliary supercell:     5 x     5 x     5  =     125
superc: Number of atoms, orbitals, and projectors:    250   3250   1000

outcell: Unit cell vectors (Ang):
       -0.000029    2.757648    2.757648
        2.757648   -0.000029    2.757648
        2.757648    2.757648   -0.000029

outcell: Cell vector modules (Ang)   :    3.899903    3.899903    3.899903
outcell: Cell angles (23,13,12) (deg):     60.0007     60.0007     60.0007
outcell: Cell volume (Ang**3)        :     41.9424
<dSpData1D:S at geom step 16
  <sparsity:sparsity for geom step 16
    nrows_g=26 nrows=14 sparsity=16.7781 nnzs=11342, refcount: 7>
  <dData1D:(new from dSpData1D) n=11342, refcount: 1>
refcount: 1>
new_DM -- step:    17
Re-using DM from previous geometries...
Number of DMs in history: 1
 DM extrapolation coefficients: 
1   1.00000
New DM after history re-use:
<dSpData2D:SpM extrapolated using coords
  <sparsity:sparsity for geom step 16
    nrows_g=26 nrows=14 sparsity=16.7781 nnzs=11342, refcount: 9>
  <dData2D:(temp array for extrapolation) n=11342 m=1, refcount: 1>
refcount: 1>
No. of atoms with KB's overlaping orbs in proc 0. Max # of overlaps:      17     161

InitMesh: MESH = 36 x 36 x 36 = 46656
InitMesh: Mesh cutoff (required, used) =   300.000   353.251 Ry
New grid distribution [1]: sub = 2
New grid distribution [2]: sub = 2
New grid distribution [3]: sub = 2
Setting up quadratic distribution...

        iscf     Eharris(eV)        E_KS(eV)     FreeEng(eV)     dDmax    Ef(eV) dHmax(eV)
   scf:    1     -213.810595     -213.811791     -213.811791  0.000202 -3.997238  0.000159
   scf:    2     -213.811791     -213.811791     -213.811791  0.000021 -3.997106  0.000065

SCF Convergence by DM+H criterion
max |DM_out - DM_in|         :     0.0000211572
max |H_out - H_in|      (eV) :     0.0000651776
SCF cycle converged after 2 iterations

Using DM_out to compute the final energy and forces
No. of atoms with KB's overlaping orbs in proc 0. Max # of overlaps:      17     161

siesta: E_KS(eV) =             -213.8118

siesta: Atomic forces (eV/Ang):
----------------------------------------
   Tot    0.000000   -0.000000   -0.000000
----------------------------------------
   Max    0.000919
   Res    0.000919    sqrt( Sum f_i^2 / 3N )
----------------------------------------
   Max    0.000919    constrained

Stress tensor Voigt[x,y,z,yz,xz,xy] (kbar):        1.70        1.70        1.70       -0.03       -0.03       -0.03
(Free)E + p*V (eV/cell)     -213.8562
Target enthalpy (eV/cell)     -213.8118

siesta: Stress tensor (static) (eV/Ang**3):
         0.001059   -0.000018   -0.000018
        -0.000018    0.001059   -0.000018
        -0.000018   -0.000018    0.001059

siesta: Pressure (static):         -1.69634601  kBar

siesta: Stress tensor (total) (eV/Ang**3):
         0.001059   -0.000018   -0.000018
        -0.000018    0.001059   -0.000018
        -0.000018   -0.000018    0.001059

siesta: Pressure (total):         -1.69634601  kBar

outcoor: Relaxed atomic coordinates (fractional):           
    0.24999455    0.24999455    0.24999455   1       1  Si
    0.00000545    0.00000545    0.00000545   1       2  Si

outcell: Unit cell vectors (Ang):
       -0.000029    2.757648    2.757648
        2.757648   -0.000029    2.757648
        2.757648    2.757648   -0.000029

outcell: Cell vector modules (Ang)   :    3.899903    3.899903    3.899903
outcell: Cell angles (23,13,12) (deg):     60.0007     60.0007     60.0007
outcell: Cell volume (Ang**3)        :     41.9424

siesta: Program's energy decomposition (eV):
siesta: Ebs     =       -75.378362
siesta: Eions   =       444.480597
siesta: Ena     =       174.541327
siesta: Ekin    =        80.967671
siesta: Enl     =        35.364137
siesta: Eso     =         0.000000
siesta: Edftu   =         0.000000
siesta: DEna    =         4.101160
siesta: DUscf   =         0.293545
siesta: DUext   =         0.000000
siesta: Ex      =       -56.398127
siesta: Ec      =        -8.200906
siesta: Exc     =       -64.599033
siesta: EbV     =         0.000000
siesta: eta*DQ  =         0.000000
siesta: Emadel  =         0.000000
siesta: Emeta   =         0.000000
siesta: Emolmec =         0.000000
siesta: Ekinion =         0.000000
siesta: Eharris =      -213.811791
siesta: Etot    =      -213.811791
siesta: FreeEng =      -213.811791

siesta: Final energy (eV):
siesta:  Band Struct. =     -75.378362
siesta:       Kinetic =      80.967671
siesta:       Hartree =      15.224493
siesta:         Edftu =       0.000000
siesta:       Eso     =       0.000000
siesta:    Ext. field =       0.000000
siesta:         Exch. =     -56.398127
siesta:         Corr. =      -8.200906
siesta:     Bulk bias =       0.000000
siesta:   Exch.-corr. =     -64.599033
siesta:  Ion-electron =    -102.746691
siesta:       Ion-ion =    -142.658232
siesta:       Ekinion =       0.000000
siesta: D3 dispersion =       0.000000
siesta:         Total =    -213.811791
siesta:         Fermi =      -3.997106

siesta: Stress tensor (static) (eV/Ang**3):
siesta:     0.001059   -0.000018   -0.000018
siesta:    -0.000018    0.001059   -0.000018
siesta:    -0.000018   -0.000018    0.001059

siesta: Constrained stress tensor (static) (eV/Ang**3):
siesta:     0.001059   -0.000018   -0.000018
siesta:    -0.000018    0.001059   -0.000018
siesta:    -0.000018   -0.000018    0.001059

siesta: Cell volume =         41.942412 Ang**3

siesta: Pressure (static):
siesta:                Solid            Molecule  Units
siesta:          -0.00001153         -0.00001186  Ry/Bohr**3
siesta:          -0.00105878         -0.00108900  eV/Ang**3
siesta:          -1.69634601         -1.74477035  kBar
(Free)E+ p_basis*V_orbitals  =        -212.296836
(Free)Eharris+ p_basis*V_orbitals  =        -212.296836

cite: Please see "Si-diamond.bib" for an exhaustive BiBTeX file.
cite: Please clearly indicate Siesta version in published work: 5.0.1
cite: This calculation has made use of the following articles
cite: which are encouraged to be cited in a published work.
        Primary SIESTA paper
          DOI: www.doi.org/10.1088/0953-8984/14/11/302


>> End of run:   5-DEC-2024  17:45:51
Job completed
