Executable      : siesta
Version         : 5.0.1
Architecture    : x86_64
Compiler version: GNU-12.4.0
Compiler flags  : -march=nocona -mtune=haswell -ftree-vectorize -fPIC -fstack-protector-strong -fno-plt -O2 -ffunction-sections -pipe -isystem <prefix>/include -fdebug-prefix-map=<prefix>/work=/usr/local/src/conda/siesta-5.0.1 -fdebug-prefix-map=<prefix>=/usr/local/src/conda-prefix -I<prefix>/lib -fallow-argument-mismatch -O3
Parallelisations: MPI
NetCDF support
NetCDF-4 support
NetCDF-4 MPI-IO support
Lua support
Native ELPA support
DFT-D3 support

Runtime information:
* Directory : /home/carlos/documents/siesta-hands-on/siesta-complete-guide/Chapter-8/smearing/ec_50
* Running on 2 nodes in parallel.
>> Start of run:   5-DEC-2024  17:41:37

                           *********************** 
                           *  WELCOME TO SIESTA  * 
                           *********************** 

 NOTE: Siesta V5 introduces some new defaults for basis-set generation
 NOTE: which might lead to slightly different numerical results.
 NOTE: Please see the manual for full details and compatibility measures.


reinit: Reading from file calc.fdf

reinit: -----------------------------------------------------------------------
reinit: System Name: Si bulk diamond
reinit: -----------------------------------------------------------------------
reinit: System Label: Si-diamond
reinit: -----------------------------------------------------------------------

initatom: Reading input for the pseudopotentials and atomic orbitals ----------
Species number:   1 Atomic number:   14 Label: Si

Ground state valence configuration (from tables):   3s02  3p02  3d00  4f00

---- Processing specs for species: Si
Reading pseudopotential information in unformatted form from:
  Si.vps

---- Pseudopotential check for Si

Pseudized shells:
3s( 2.00) rc: 1.23
3p( 2.00) rc: 1.43
Valence configuration for ps generation: (assumed as above)
For Si, standard SIESTA heuristics set lmxkb to 3
 (one more than the basis l, including polarization orbitals).
Use PS.lmax or PS.KBprojectors blocks to override.
Si pseudopotential only contains V_ls up to l=1 -- lmxkb reset.

<basis_specs>
===============================================================================
Si                   Z=  14    Mass=  28.090        Charge= 0.17977+309
Lmxo=2 Lmxkb= 1    BasisType=split      Semic=F
L=0  Nsemic=0  Cnfigmx=3
          i=1  nzeta=2  polorb=0  (3s)
            splnorm:   0.15000    
               vcte:    40.000    
               rinn:  -0.90000    
               qcoe:    0.0000    
               qyuk:    0.0000    
               qwid:   0.10000E-01
                rcs:    0.0000      0.0000    
            lambdas:    1.0000      1.0000    
L=1  Nsemic=0  Cnfigmx=3
          i=1  nzeta=2  polorb=1  (3p)  (to be polarized perturbatively)
            splnorm:   0.15000    
               vcte:    40.000    
               rinn:  -0.90000    
               qcoe:    0.0000    
               qyuk:    0.0000    
               qwid:   0.10000E-01
                rcs:    0.0000      0.0000    
            lambdas:    1.0000      1.0000    
L=2  Nsemic=0  Cnfigmx=3
          i=1  nzeta=0  polorb=0  (3d)  (perturbative polarization orbital) (from 3p)
-------------------------------------------------------------------------------
L=0  Nkbl=1  erefs: 0.17977+309
L=1  Nkbl=1  erefs: 0.17977+309
===============================================================================
</basis_specs>

Using PAO.SplitTailNorm
atom: Called for Si                    (Z =  14)
NOTE: Si pseudopotential has channels up to l= 1
NOTE: PAOs with higher l will be generated with V_local
Maximum radius (at nrval) set to   50.00000 8518

read_vps: Pseudopotential generation method:
read_vps: ATM4.2.7  Kerker                                  
Valence charge in pseudo generation:    4.00000

xc_check: Exchange-correlation functional:
xc_check: GGA Perdew, Burke & Ernzerhof 1996
V l=0 = -2*Zval/r beyond r=  2.8074
V l=1 = -2*Zval/r beyond r=  2.8074
All V_l potentials equal beyond r=  1.5163
This should be close to max(r_c) in ps generation
All pots = -2*Zval/r beyond r=  2.8074
Using large-core scheme (fit) for Vlocal

atom: Estimated core radius    2.80744

atom: Including non-local core corrections could be a good idea
Fit of Vlocal with continuous 2nd derivative
Fitting vlocal at       1.5209
Choosing vlocal chloc cutoff:  5726  3.054333
qtot up to nchloc:    3.99984030
atom: Maximum radius for chlocal:    3.05433
atom: Maximum radius for r*vlocal+2*Zval:    3.05433

KBgen: Kleinman-Bylander projectors: 
GHOST: No ghost state for L =  0
   l= 0   rc=  1.511703   el= -0.791527   Ekb=  6.361810   kbcos=  0.278083
GHOST: No ghost state for L =  1
   l= 1   rc=  1.575389   el= -0.300579   Ekb=  2.611741   kbcos=  0.260518

KBgen: Total number of Kleinman-Bylander projectors:   4
atom: -------------------------------------------------------------------------

atom: SANKEY-TYPE ORBITALS:
atom: Selected multiple-zeta basis: split     

SPLIT: Orbitals with angular momentum L= 0

SPLIT: Basis orbitals for state 3s

SPLIT: PAO cut-off radius determined from an
SPLIT: energy shift=  0.010000 Ry
Split based on tail norm

   izeta = 1
                 lambda =    1.000000
                     rc =    5.403143
                 energy =   -0.779945
                kinetic =    0.563858
    potential(screened) =   -1.343803
       potential(ionic) =   -3.794934

   izeta = 2
                 rmatch =    3.854490
              splitnorm =    0.150000
                 energy =   -0.529540
                kinetic =    1.167421
    potential(screened) =   -1.696961
       potential(ionic) =   -4.291182

SPLIT: Orbitals with angular momentum L= 1

SPLIT: Basis orbitals for state 3p

SPLIT: PAO cut-off radius determined from an
SPLIT: energy shift=  0.010000 Ry
Split based on tail norm

   izeta = 1
                 lambda =    1.000000
                     rc =    6.843982
                 energy =   -0.289102
                kinetic =    0.857285
    potential(screened) =   -1.146387
       potential(ionic) =   -3.385088

   izeta = 2
                 rmatch =    4.952104
              splitnorm =    0.150000
                 energy =   -0.182759
                kinetic =    1.296336
    potential(screened) =   -1.479095
       potential(ionic) =   -3.923275
*Note: V_local used for l= 2

** Using vlocal for PAOs with L= 2

POLgen: Perturbative polarization orbital with L=  2

POLgen: Polarization orbital for state 3p
*Note: V_local used for lpol= 2

** Using vlocal for PAOs with L= 2
Split based on tail norm

   izeta = 1
                     rc =    6.843982
                 energy =    0.369369
                kinetic =    1.362956
    potential(screened) =   -0.993588
       potential(ionic) =   -3.078590
atom: Total number of Sankey-type orbitals: 13

atm_pop: Valence configuration (for local Pseudopot. screening):
 3s( 2.00)                                                            
 3p( 2.00)                                                            
 3d( 0.00)                                                            
Vna: chval, zval:    4.00000   4.00000

Vna:  Cut-off radius for the neutral-atom potential:   6.843982

atom: _________________________________________________________________________

prinput: Basis input 

PAO.BasisType split     

%block ChemicalSpeciesLabel
    1   14 Si                      # Species index, atomic number, species label
%endblock ChemicalSpeciesLabel

%block PAO.Basis                 # Define Basis set
# WARNING: This information might be incomplete!
Si                    2                    # Species label, number of l-shells
 n=3   0   2                         # n, l, Nzeta 
   5.403      3.854   
   1.000      1.000   
 n=3   1   2 P   1                   # n, l, Nzeta, Polarization, NzetaPol
   6.844      4.952   
   1.000      1.000   
%endblock PAO.Basis

prinput: ----------------------------------------------------------------------

Dumping basis to NetCDF file Si.ion.nc
coor:   Atomic-coordinates input format  =     Fractional

siesta: Atomic coordinates (Bohr) and species
siesta:      3.30702   3.30702   3.30702  1        1
siesta:      0.00000   0.00000   0.00000  1        2

siesta: System type = bulk      

initatomlists: Number of atoms, orbitals, and projectors:      2    26     8

siesta: ******************** Simulation parameters ****************************
siesta:
siesta: The following are some of the parameters of the simulation.
siesta: A complete list of the parameters used, including default values,
siesta: can be found in file out.fdf
siesta:
redata: Spin configuration                          = none
redata: Number of spin components                   = 1
redata: Time-Reversal Symmetry                      = T
redata: Spin spiral                                 = F
redata: Long output                                 =   F
redata: Number of Atomic Species                    =        1
redata: Charge density info will appear in .RHO file
redata: Write Mulliken Pop.                         = NO
redata: Matel table size (NRTAB)                    =     1024
redata: Mesh Cutoff                                 =   300.0000 Ry
redata: Net charge of the system                    =     0.0000 |e|
redata: Min. number of SCF Iter                     =        0
redata: Max. number of SCF Iter                     =      300
redata: SCF convergence failure will abort job
redata: SCF mix quantity                            = Hamiltonian
redata: Mix DM or H after convergence               =   F
redata: Recompute H after scf cycle                 =   F
redata: Mix DM in first SCF step                    =   T
redata: Write Pulay info on disk                    =   F
redata: New DM Occupancy tolerance                  = 0.000000000001
redata: No kicks to SCF
redata: DM Mixing Weight for Kicks                  =     0.5000
redata: Require Harris convergence for SCF          =   F
redata: Harris energy tolerance for SCF             =     0.000100 eV
redata: Require DM convergence for SCF              =   T
redata: DM tolerance for SCF                        =     0.000100
redata: Require EDM convergence for SCF             =   F
redata: EDM tolerance for SCF                       =     0.001000 eV
redata: Require H convergence for SCF               =   T
redata: Hamiltonian tolerance for SCF               =     0.001000 eV
redata: Require (free) Energy convergence for SCF   =   F
redata: (free) Energy tolerance for SCF             =     0.000100 eV
redata: Using DFT-D3 dispersion                     =   F
redata: Using Saved Data (generic)                  =   F
redata: Use continuation files for DM               =   T
redata: Neglect nonoverlap interactions             =   F
redata: Method of Calculation                       = Diagonalization
redata: Electronic Temperature                      =    50.0000 K
redata: Fix the spin of the system                  =   F
redata: Max. number of TDED Iter                    =        1
redata: Number of TDED substeps                     =        3
redata: Dynamics option                             = CG coord. optimization
redata: Variable cell                               =   T
redata: Use continuation files for CG               =   F
redata: Max atomic displ per move                   =     0.1058 Ang
redata: Maximum number of optimization moves        =       30
redata: Force tolerance                             =     0.0010 eV/Ang
redata: Stress tolerance                            =     1.0000 GPa
mix.SCF: Pulay mixing                            = Pulay
mix.SCF:    Variant                              = stable
mix.SCF:    History steps                        = 2
mix.SCF:    Linear mixing weight                 =     0.250000
mix.SCF:    Mixing weight                        =     0.250000
mix.SCF:    SVD condition                        = 0.1000E-07
redata: Save all siesta data in one NC              =   F
redata: ***********************************************************************

%block SCF.Mixers
  Pulay
%endblock SCF.Mixers

%block SCF.Mixer.Pulay
  # Mixing method
  method pulay
  variant stable

  # Mixing options
  weight 0.2500
  weight.linear 0.2500
  history 2
%endblock SCF.Mixer.Pulay

DM_history_depth set to one: no extrapolation allowed by default for geometry relaxation
Size of DM history Fstack: 1
Total number of electrons:     8.000000
Total ionic charge:     8.000000

* ProcessorY, Blocksize:    2  14


* Orbital distribution balance (max,min):    14    12

k-point displ. along   1 input, could be:     0.00    0.50
k-point displ. along   2 input, could be:     0.00    0.50
k-point displ. along   3 input, could be:     0.00    0.50
 Kpoints in:          144 . Kpoints trimmed:          132

siesta: k-grid: Number of k-points = 132
siesta: k-points from Monkhorst-Pack grid
siesta: k-cutoff (effective) =    14.849 Ang
siesta: k-point supercell and displacements
siesta: k-grid:     6     0     0      0.000
siesta: k-grid:     0     6     0      0.000
siesta: k-grid:     0     0     6      0.000

diag: Algorithm                                     = D&C
diag: Parallel over k                               =   F
diag: Use parallel 2D distribution                  =   F
diag: Parallel block-size                           = 14
diag: Parallel distribution                         =     1 x     2
diag: Used triangular part                          = Lower
diag: Absolute tolerance                            =  0.100E-15
diag: Orthogonalization factor                      =  0.100E-05
diag: Memory factor                                 =  1.0000

superc: Internal auxiliary supercell:     3 x     3 x     3  =      27
superc: Number of atoms, orbitals, and projectors:     54    702    216


ts: **************************************************************
ts: Save H and S matrices                           =    F
ts: Save DM and EDM matrices                        =    F
ts: Only save the overlap matrix S                  =    F
ts: **************************************************************

************************ Begin: TS CHECKS AND WARNINGS ************************
************************ End: TS CHECKS AND WARNINGS **************************


                     ====================================
                        Begin CG opt. move =      0
                     ====================================

superc: Internal auxiliary supercell:     3 x     3 x     3  =      27
superc: Number of atoms, orbitals, and projectors:     54    702    216

outcell: Unit cell vectors (Ang):
        0.000000    3.500000    3.500000
        3.500000    0.000000    3.500000
        3.500000    3.500000    0.000000

outcell: Cell vector modules (Ang)   :    4.949747    4.949747    4.949747
outcell: Cell angles (23,13,12) (deg):     60.0000     60.0000     60.0000
outcell: Cell volume (Ang**3)        :     85.7500
<dSpData1D:S at geom step 0
  <sparsity:sparsity for geom step 0
    nrows_g=26 nrows=14 sparsity=7.3817 nnzs=4990, refcount: 7>
  <dData1D:(new from dSpData1D) n=4990, refcount: 1>
refcount: 1>
new_DM -- step:     1
Initializing Density Matrix...

Attempting to read DM from file... Failed...
DM filled with atomic data:
<dSpData2D:DM initialized from atoms
  <sparsity:sparsity for geom step 0
    nrows_g=26 nrows=14 sparsity=7.3817 nnzs=4990, refcount: 8>
  <dData2D:DM n=4990 m=1, refcount: 1>
refcount: 1>
No. of atoms with KB's overlaping orbs in proc 0. Max # of overlaps:       8      61

InitMesh: MESH = 48 x 48 x 48 = 110592
InitMesh: Mesh cutoff (required, used) =   300.000   389.861 Ry
New grid distribution [1]: sub = 2
New grid distribution [2]: sub = 2
New grid distribution [3]: sub = 2
Setting up quadratic distribution...

stepf: Fermi-Dirac step function

siesta: Program's energy decomposition (eV):
siesta: Ebs     =       -64.972033
siesta: Eions   =       444.480597
siesta: Ena     =       181.138495
siesta: Ekin    =        66.934665
siesta: Enl     =        33.616124
siesta: Eso     =         0.000000
siesta: Edftu   =         0.000000
siesta: DEna    =         8.772869
siesta: DUscf   =         0.289441
siesta: DUext   =         0.000000
siesta: Ex      =       -49.898313
siesta: Ec      =        -6.975920
siesta: Exc     =       -56.874233
siesta: EbV     =         0.000000
siesta: eta*DQ  =         0.000000
siesta: Emadel  =         0.000000
siesta: Emeta   =         0.000000
siesta: Emolmec =         0.000000
siesta: Ekinion =         0.000000
siesta: Eharris =      -215.664023
siesta: Etot    =      -210.603235
siesta: FreeEng =      -210.603867

        iscf     Eharris(eV)        E_KS(eV)     FreeEng(eV)     dDmax    Ef(eV) dHmax(eV)
   scf:    1     -215.664023     -210.603235     -210.603867  0.708713 -4.357385  0.498751
timer: Routine,Calls,Time,% = IterSCF        1       0.447  22.54
   scf:    2     -210.615990     -210.609725     -210.610224  0.010764 -4.437785  0.339216
   scf:    3     -210.620376     -210.615495     -210.615762  0.020923 -4.607148  0.011411
   scf:    4     -210.615527     -210.615511     -210.615776  0.000626 -4.609823  0.004421
   scf:    5     -210.615517     -210.615514     -210.615779  0.000178 -4.609405  0.003638
   scf:    6     -210.615522     -210.615518     -210.615782  0.000478 -4.607948  0.001152
   scf:    7     -210.615518     -210.615518     -210.615782  0.000044 -4.607518  0.000860

SCF Convergence by DM+H criterion
max |DM_out - DM_in|         :     0.0000436137
max |H_out - H_in|      (eV) :     0.0008604307
SCF cycle converged after 7 iterations

Using DM_out to compute the final energy and forces
No. of atoms with KB's overlaping orbs in proc 0. Max # of overlaps:       8      61

siesta: E_KS(eV) =             -210.6155

siesta: E_KS - E_eggbox =      -210.6155

siesta: Atomic forces (eV/Ang):
----------------------------------------
   Tot   -0.000000   -0.000000    0.000000
----------------------------------------
   Max    0.000064
   Res    0.000064    sqrt( Sum f_i^2 / 3N )
----------------------------------------
   Max    0.000064    constrained

Stress tensor Voigt[x,y,z,yz,xz,xy] (kbar):      116.64      116.64      116.64        0.00        0.00        0.00
(Free)E + p*V (eV/cell)     -216.8585
Target enthalpy (eV/cell)     -210.6158

siesta: Stress tensor (static) (eV/Ang**3):
         0.072801    0.000002    0.000002
         0.000002    0.072801    0.000002
         0.000002    0.000002    0.072801

siesta: Pressure (static):       -116.64077710  kBar

siesta: Stress tensor (total) (eV/Ang**3):
         0.072801    0.000002    0.000002
         0.000002    0.072801    0.000002
         0.000002    0.000002    0.072801

siesta: Pressure (total):       -116.64077710  kBar

cgvc: No target stress found, assuming hydrostatic MD.TargetPressure.

cgvc: Target stress (kBar)
cgvc:        -0.000       0.000       0.000
cgvc:         0.000      -0.000       0.000
cgvc:         0.000       0.000      -0.000

                     ====================================
                        Begin CG opt. move =      1
                     ====================================
k-point displ. along   1 input, could be:     0.00    0.50
k-point displ. along   2 input, could be:     0.00    0.50
k-point displ. along   3 input, could be:     0.00    0.50
 Kpoints in:          144 . Kpoints trimmed:          132

siesta: k-grid: Number of k-points = 132
siesta: k-points from Monkhorst-Pack grid
siesta: k-cutoff (effective) =    14.668 Ang
siesta: k-point supercell and displacements
siesta: k-grid:     6     0     0      0.000
siesta: k-grid:     0     6     0      0.000
siesta: k-grid:     0     0     6      0.000

superc: Internal auxiliary supercell:     3 x     3 x     3  =      27
superc: Number of atoms, orbitals, and projectors:     54    702    216

outcell: Unit cell vectors (Ang):
       -0.000002    3.457226    3.457226
        3.457226   -0.000002    3.457226
        3.457226    3.457226   -0.000002

outcell: Cell vector modules (Ang)   :    4.889256    4.889256    4.889256
outcell: Cell angles (23,13,12) (deg):     60.0000     60.0000     60.0000
outcell: Cell volume (Ang**3)        :     82.6445
<dSpData1D:S at geom step 1
  <sparsity:sparsity for geom step 1
    nrows_g=26 nrows=14 sparsity=7.4349 nnzs=5026, refcount: 7>
  <dData1D:(new from dSpData1D) n=5026, refcount: 1>
refcount: 1>
new_DM -- step:     2
Re-using DM from previous geometries...
Number of DMs in history: 1
 DM extrapolation coefficients: 
1   1.00000
New DM after history re-use:
<dSpData2D:SpM extrapolated using coords
  <sparsity:sparsity for geom step 1
    nrows_g=26 nrows=14 sparsity=7.4349 nnzs=5026, refcount: 9>
  <dData2D:(temp array for extrapolation) n=5026 m=1, refcount: 1>
refcount: 1>
Note: For starting DM, Qtot, Tr[D*S] =          8.00000000          8.07835891
No. of atoms with KB's overlaping orbs in proc 0. Max # of overlaps:       8      61

InitMesh: MESH = 48 x 48 x 48 = 110592
InitMesh: Mesh cutoff (required, used) =   300.000   399.567 Ry
New grid distribution [1]: sub = 2
New grid distribution [2]: sub = 2
New grid distribution [3]: sub = 2
Setting up quadratic distribution...

        iscf     Eharris(eV)        E_KS(eV)     FreeEng(eV)     dDmax    Ef(eV) dHmax(eV)
   scf:    1     -210.794965     -210.845056     -210.845296  0.020773 -4.635206  0.022289
   scf:    2     -210.845078     -210.845069     -210.845309  0.001234 -4.617949  0.004091
   scf:    3     -210.845070     -210.845069     -210.845310  0.000196 -4.620535  0.000106
   scf:    4     -210.845069     -210.845069     -210.845310  0.000007 -4.620512  0.000079

SCF Convergence by DM+H criterion
max |DM_out - DM_in|         :     0.0000067398
max |H_out - H_in|      (eV) :     0.0000792066
SCF cycle converged after 4 iterations

Using DM_out to compute the final energy and forces
No. of atoms with KB's overlaping orbs in proc 0. Max # of overlaps:       8      61

siesta: E_KS(eV) =             -210.8451

siesta: Atomic forces (eV/Ang):
----------------------------------------
   Tot   -0.000000    0.000000    0.000000
----------------------------------------
   Max    0.000127
   Res    0.000127    sqrt( Sum f_i^2 / 3N )
----------------------------------------
   Max    0.000127    constrained

Stress tensor Voigt[x,y,z,yz,xz,xy] (kbar):      120.21      120.21      120.21        0.00        0.00        0.00
(Free)E + p*V (eV/cell)     -217.0459
Target enthalpy (eV/cell)     -210.8453

siesta: Stress tensor (static) (eV/Ang**3):
         0.075028    0.000002    0.000002
         0.000002    0.075028    0.000002
         0.000002    0.000002    0.075028

siesta: Pressure (static):       -120.20789842  kBar

siesta: Stress tensor (total) (eV/Ang**3):
         0.075028    0.000002    0.000002
         0.000002    0.075028    0.000002
         0.000002    0.000002    0.075028

siesta: Pressure (total):       -120.20789842  kBar

                     ====================================
                        Begin CG opt. move =      2
                     ====================================
k-point displ. along   1 input, could be:     0.00    0.50
k-point displ. along   2 input, could be:     0.00    0.50
k-point displ. along   3 input, could be:     0.00    0.50
 Kpoints in:          144 . Kpoints trimmed:          132

siesta: k-grid: Number of k-points = 132
siesta: k-points from Monkhorst-Pack grid
siesta: k-cutoff (effective) =    14.377 Ang
siesta: k-point supercell and displacements
siesta: k-grid:     6     0     0      0.000
siesta: k-grid:     0     6     0      0.000
siesta: k-grid:     0     0     6      0.000

superc: Internal auxiliary supercell:     3 x     3 x     3  =      27
superc: Number of atoms, orbitals, and projectors:     54    702    216

outcell: Unit cell vectors (Ang):
       -0.000005    3.388788    3.388788
        3.388788   -0.000005    3.388788
        3.388788    3.388788   -0.000005

outcell: Cell vector modules (Ang)   :    4.792470    4.792470    4.792470
outcell: Cell angles (23,13,12) (deg):     60.0001     60.0001     60.0001
outcell: Cell volume (Ang**3)        :     77.8331
<dSpData1D:S at geom step 2
  <sparsity:sparsity for geom step 2
    nrows_g=26 nrows=14 sparsity=7.7544 nnzs=5242, refcount: 7>
  <dData1D:(new from dSpData1D) n=5242, refcount: 1>
refcount: 1>
new_DM -- step:     3
Re-using DM from previous geometries...
Number of DMs in history: 1
 DM extrapolation coefficients: 
1   1.00000
New DM after history re-use:
<dSpData2D:SpM extrapolated using coords
  <sparsity:sparsity for geom step 2
    nrows_g=26 nrows=14 sparsity=7.7544 nnzs=5242, refcount: 9>
  <dData2D:(temp array for extrapolation) n=5242 m=1, refcount: 1>
refcount: 1>
Note: For starting DM, Qtot, Tr[D*S] =          8.00000000          8.12784058
No. of atoms with KB's overlaping orbs in proc 0. Max # of overlaps:       8      61

InitMesh: MESH = 48 x 48 x 48 = 110592
InitMesh: Mesh cutoff (required, used) =   300.000   415.868 Ry
New grid distribution [1]: sub = 2
New grid distribution [2]: sub = 2
New grid distribution [3]: sub = 2
Setting up quadratic distribution...

        iscf     Eharris(eV)        E_KS(eV)     FreeEng(eV)     dDmax    Ef(eV) dHmax(eV)
   scf:    1     -211.118321     -211.214548     -211.214662  0.040511 -4.645223  0.044076
   scf:    2     -211.214626     -211.214593     -211.214711  0.002240 -4.613675  0.007695
   scf:    3     -211.214598     -211.214596     -211.214713  0.000350 -4.618193  0.000237
   scf:    4     -211.214596     -211.214596     -211.214713  0.000021 -4.618132  0.000176

SCF Convergence by DM+H criterion
max |DM_out - DM_in|         :     0.0000213302
max |H_out - H_in|      (eV) :     0.0001760883
SCF cycle converged after 4 iterations

Using DM_out to compute the final energy and forces
No. of atoms with KB's overlaping orbs in proc 0. Max # of overlaps:       8      61

siesta: E_KS(eV) =             -211.2146

siesta: Atomic forces (eV/Ang):
----------------------------------------
   Tot    0.000000   -0.000000    0.000000
----------------------------------------
   Max    0.000019
   Res    0.000019    sqrt( Sum f_i^2 / 3N )
----------------------------------------
   Max    0.000019    constrained

Stress tensor Voigt[x,y,z,yz,xz,xy] (kbar):      126.11      126.11      126.11        0.00        0.00        0.00
(Free)E + p*V (eV/cell)     -217.3411
Target enthalpy (eV/cell)     -211.2147

siesta: Stress tensor (static) (eV/Ang**3):
         0.078712    0.000001    0.000001
         0.000001    0.078712    0.000001
         0.000001    0.000001    0.078712

siesta: Pressure (static):       -126.11060716  kBar

siesta: Stress tensor (total) (eV/Ang**3):
         0.078712    0.000001    0.000001
         0.000001    0.078712    0.000001
         0.000001    0.000001    0.078712

siesta: Pressure (total):       -126.11060716  kBar

                     ====================================
                        Begin CG opt. move =      3
                     ====================================
k-point displ. along   1 input, could be:     0.00    0.50
k-point displ. along   2 input, could be:     0.00    0.50
k-point displ. along   3 input, could be:     0.00    0.50
 Kpoints in:          144 . Kpoints trimmed:          132

siesta: k-grid: Number of k-points = 132
siesta: k-points from Monkhorst-Pack grid
siesta: k-cutoff (effective) =    14.063 Ang
siesta: k-point supercell and displacements
siesta: k-grid:     6     0     0      0.000
siesta: k-grid:     0     6     0      0.000
siesta: k-grid:     0     0     6      0.000

superc: Internal auxiliary supercell:     5 x     5 x     5  =     125
superc: Number of atoms, orbitals, and projectors:    250   3250   1000

outcell: Unit cell vectors (Ang):
       -0.000009    3.314701    3.314701
        3.314701   -0.000009    3.314701
        3.314701    3.314701   -0.000009

outcell: Cell vector modules (Ang)   :    4.687696    4.687696    4.687696
outcell: Cell angles (23,13,12) (deg):     60.0002     60.0002     60.0002
outcell: Cell volume (Ang**3)        :     72.8392
<dSpData1D:S at geom step 3
  <sparsity:sparsity for geom step 3
    nrows_g=26 nrows=14 sparsity=9.0148 nnzs=6094, refcount: 7>
  <dData1D:(new from dSpData1D) n=6094, refcount: 1>
refcount: 1>
new_DM -- step:     4
Re-using DM from previous geometries...
Number of DMs in history: 1
 DM extrapolation coefficients: 
1   1.00000
New DM after history re-use:
<dSpData2D:SpM extrapolated using coords
  <sparsity:sparsity for geom step 3
    nrows_g=26 nrows=14 sparsity=9.0148 nnzs=6094, refcount: 9>
  <dData2D:(temp array for extrapolation) n=6094 m=1, refcount: 1>
refcount: 1>
Note: For starting DM, Qtot, Tr[D*S] =          8.00000000          8.14210583
No. of atoms with KB's overlaping orbs in proc 0. Max # of overlaps:       8      65

InitMesh: MESH = 40 x 40 x 40 = 64000
InitMesh: Mesh cutoff (required, used) =   300.000   301.851 Ry
New grid distribution [1]: sub = 2
New grid distribution [2]: sub = 2
New grid distribution [3]: sub = 2
Setting up quadratic distribution...

        iscf     Eharris(eV)        E_KS(eV)     FreeEng(eV)     dDmax    Ef(eV) dHmax(eV)
   scf:    1     -211.485169     -211.615765     -211.615875  0.042376 -4.543379  0.045275
   scf:    2     -211.615860     -211.615819     -211.615930  0.002278 -4.510980  0.007925
   scf:    3     -211.615824     -211.615822     -211.615932  0.000355 -4.515649  0.000212
   scf:    4     -211.615822     -211.615822     -211.615932  0.000021 -4.515597  0.000158

SCF Convergence by DM+H criterion
max |DM_out - DM_in|         :     0.0000209256
max |H_out - H_in|      (eV) :     0.0001582367
SCF cycle converged after 4 iterations

Using DM_out to compute the final energy and forces
No. of atoms with KB's overlaping orbs in proc 0. Max # of overlaps:       8      65

siesta: E_KS(eV) =             -211.6158

siesta: Atomic forces (eV/Ang):
----------------------------------------
   Tot    0.000000    0.000000   -0.000000
----------------------------------------
   Max    0.000067
   Res    0.000067    sqrt( Sum f_i^2 / 3N )
----------------------------------------
   Max    0.000067    constrained

Stress tensor Voigt[x,y,z,yz,xz,xy] (kbar):      131.47      131.47      131.47        0.00        0.00        0.00
(Free)E + p*V (eV/cell)     -217.5928
Target enthalpy (eV/cell)     -211.6159

siesta: Stress tensor (static) (eV/Ang**3):
         0.082056    0.000002    0.000002
         0.000002    0.082056    0.000002
         0.000002    0.000002    0.082056

siesta: Pressure (static):       -131.46810388  kBar

siesta: Stress tensor (total) (eV/Ang**3):
         0.082056    0.000002    0.000002
         0.000002    0.082056    0.000002
         0.000002    0.000002    0.082056

siesta: Pressure (total):       -131.46810388  kBar

                     ====================================
                        Begin CG opt. move =      4
                     ====================================
k-point displ. along   1 input, could be:     0.00    0.50
k-point displ. along   2 input, could be:     0.00    0.50
k-point displ. along   3 input, could be:     0.00    0.50
 Kpoints in:          144 . Kpoints trimmed:          132

siesta: k-grid: Number of k-points = 132
siesta: k-points from Monkhorst-Pack grid
siesta: k-cutoff (effective) =    13.749 Ang
siesta: k-point supercell and displacements
siesta: k-grid:     6     0     0      0.000
siesta: k-grid:     0     6     0      0.000
siesta: k-grid:     0     0     6      0.000

superc: Internal auxiliary supercell:     5 x     5 x     5  =     125
superc: Number of atoms, orbitals, and projectors:    250   3250   1000

outcell: Unit cell vectors (Ang):
       -0.000012    3.240615    3.240615
        3.240615   -0.000012    3.240615
        3.240615    3.240615   -0.000012

outcell: Cell vector modules (Ang)   :    4.582921    4.582921    4.582921
outcell: Cell angles (23,13,12) (deg):     60.0003     60.0003     60.0003
outcell: Cell volume (Ang**3)        :     68.0636
<dSpData1D:S at geom step 4
  <sparsity:sparsity for geom step 4
    nrows_g=26 nrows=14 sparsity=9.1746 nnzs=6202, refcount: 7>
  <dData1D:(new from dSpData1D) n=6202, refcount: 1>
refcount: 1>
new_DM -- step:     5
Re-using DM from previous geometries...
Number of DMs in history: 1
 DM extrapolation coefficients: 
1   1.00000
New DM after history re-use:
<dSpData2D:SpM extrapolated using coords
  <sparsity:sparsity for geom step 4
    nrows_g=26 nrows=14 sparsity=9.1746 nnzs=6202, refcount: 9>
  <dData2D:(temp array for extrapolation) n=6202 m=1, refcount: 1>
refcount: 1>
Note: For starting DM, Qtot, Tr[D*S] =          8.00000000          8.14612696
No. of atoms with KB's overlaping orbs in proc 0. Max # of overlaps:       8      65

InitMesh: MESH = 40 x 40 x 40 = 64000
InitMesh: Mesh cutoff (required, used) =   300.000   315.810 Ry
New grid distribution [1]: sub = 2
New grid distribution [2]: sub = 2
New grid distribution [3]: sub = 2
Setting up quadratic distribution...

        iscf     Eharris(eV)        E_KS(eV)     FreeEng(eV)     dDmax    Ef(eV) dHmax(eV)
   scf:    1     -211.855455     -212.014474     -212.014551  0.054844 -4.454780  0.055657
   scf:    2     -212.014619     -212.014557     -212.014634  0.002577 -4.408795  0.009338
   scf:    3     -212.014563     -212.014560     -212.014637  0.000396 -4.415212  0.000314
   scf:    4     -212.014561     -212.014560     -212.014637  0.000033 -4.415152  0.000236

SCF Convergence by DM+H criterion
max |DM_out - DM_in|         :     0.0000325318
max |H_out - H_in|      (eV) :     0.0002359836
SCF cycle converged after 4 iterations

Using DM_out to compute the final energy and forces
No. of atoms with KB's overlaping orbs in proc 0. Max # of overlaps:       8      65

siesta: E_KS(eV) =             -212.0146

siesta: Atomic forces (eV/Ang):
----------------------------------------
   Tot    0.000000   -0.000000    0.000000
----------------------------------------
   Max    0.000322
   Res    0.000322    sqrt( Sum f_i^2 / 3N )
----------------------------------------
   Max    0.000322    constrained

Stress tensor Voigt[x,y,z,yz,xz,xy] (kbar):      136.32      136.32      136.32        0.01        0.01        0.01
(Free)E + p*V (eV/cell)     -217.8059
Target enthalpy (eV/cell)     -212.0146

siesta: Stress tensor (static) (eV/Ang**3):
         0.085087    0.000006    0.000006
         0.000006    0.085087    0.000006
         0.000006    0.000006    0.085087

siesta: Pressure (static):       -136.32400759  kBar

siesta: Stress tensor (total) (eV/Ang**3):
         0.085087    0.000006    0.000006
         0.000006    0.085087    0.000006
         0.000006    0.000006    0.085087

siesta: Pressure (total):       -136.32400759  kBar

                     ====================================
                        Begin CG opt. move =      5
                     ====================================
k-point displ. along   1 input, could be:     0.00    0.50
k-point displ. along   2 input, could be:     0.00    0.50
k-point displ. along   3 input, could be:     0.00    0.50
 Kpoints in:          144 . Kpoints trimmed:          132

siesta: k-grid: Number of k-points = 132
siesta: k-points from Monkhorst-Pack grid
siesta: k-cutoff (effective) =    13.434 Ang
siesta: k-point supercell and displacements
siesta: k-grid:     6     0     0      0.000
siesta: k-grid:     0     6     0      0.000
siesta: k-grid:     0     0     6      0.000

superc: Internal auxiliary supercell:     5 x     5 x     5  =     125
superc: Number of atoms, orbitals, and projectors:    250   3250   1000

outcell: Unit cell vectors (Ang):
       -0.000016    3.166528    3.166528
        3.166528   -0.000016    3.166528
        3.166528    3.166528   -0.000016

outcell: Cell vector modules (Ang)   :    4.478147    4.478147    4.478147
outcell: Cell angles (23,13,12) (deg):     60.0003     60.0003     60.0003
outcell: Cell volume (Ang**3)        :     63.5014
<dSpData1D:S at geom step 5
  <sparsity:sparsity for geom step 5
    nrows_g=26 nrows=14 sparsity=9.3876 nnzs=6346, refcount: 7>
  <dData1D:(new from dSpData1D) n=6346, refcount: 1>
refcount: 1>
new_DM -- step:     6
Re-using DM from previous geometries...
Number of DMs in history: 1
 DM extrapolation coefficients: 
1   1.00000
New DM after history re-use:
<dSpData2D:SpM extrapolated using coords
  <sparsity:sparsity for geom step 5
    nrows_g=26 nrows=14 sparsity=9.3876 nnzs=6346, refcount: 9>
  <dData2D:(temp array for extrapolation) n=6346 m=1, refcount: 1>
refcount: 1>
Note: For starting DM, Qtot, Tr[D*S] =          8.00000000          8.15049683
No. of atoms with KB's overlaping orbs in proc 0. Max # of overlaps:       8      65

InitMesh: MESH = 40 x 40 x 40 = 64000
InitMesh: Mesh cutoff (required, used) =   300.000   330.760 Ry
New grid distribution [1]: sub = 2
New grid distribution [2]: sub = 2
New grid distribution [3]: sub = 2
Setting up quadratic distribution...

        iscf     Eharris(eV)        E_KS(eV)     FreeEng(eV)     dDmax    Ef(eV) dHmax(eV)
   scf:    1     -212.218602     -212.406336     -212.406412  0.055697 -4.456509  0.052070
   scf:    2     -212.406474     -212.406414     -212.406491  0.002338 -4.412692  0.008808
   scf:    3     -212.406420     -212.406417     -212.406494  0.000361 -4.418866  0.000272
   scf:    4     -212.406418     -212.406418     -212.406494  0.000028 -4.418815  0.000205

SCF Convergence by DM+H criterion
max |DM_out - DM_in|         :     0.0000280025
max |H_out - H_in|      (eV) :     0.0002046239
SCF cycle converged after 4 iterations

Using DM_out to compute the final energy and forces
No. of atoms with KB's overlaping orbs in proc 0. Max # of overlaps:       8      65

siesta: E_KS(eV) =             -212.4064

siesta: Atomic forces (eV/Ang):
----------------------------------------
   Tot    0.000000    0.000000   -0.000000
----------------------------------------
   Max    0.000400
   Res    0.000400    sqrt( Sum f_i^2 / 3N )
----------------------------------------
   Max    0.000400    constrained

Stress tensor Voigt[x,y,z,yz,xz,xy] (kbar):      138.40      138.40      138.40        0.01        0.01        0.01
(Free)E + p*V (eV/cell)     -217.8921
Target enthalpy (eV/cell)     -212.4065

siesta: Stress tensor (static) (eV/Ang**3):
         0.086385    0.000006    0.000006
         0.000006    0.086385    0.000006
         0.000006    0.000006    0.086385

siesta: Pressure (static):       -138.40404799  kBar

siesta: Stress tensor (total) (eV/Ang**3):
         0.086385    0.000006    0.000006
         0.000006    0.086385    0.000006
         0.000006    0.000006    0.086385

siesta: Pressure (total):       -138.40404799  kBar

                     ====================================
                        Begin CG opt. move =      6
                     ====================================
k-point displ. along   1 input, could be:     0.00    0.50
k-point displ. along   2 input, could be:     0.00    0.50
k-point displ. along   3 input, could be:     0.00    0.50
 Kpoints in:          144 . Kpoints trimmed:          132

siesta: k-grid: Number of k-points = 132
siesta: k-points from Monkhorst-Pack grid
siesta: k-cutoff (effective) =    13.120 Ang
siesta: k-point supercell and displacements
siesta: k-grid:     6     0     0      0.000
siesta: k-grid:     0     6     0      0.000
siesta: k-grid:     0     0     6      0.000

superc: Internal auxiliary supercell:     5 x     5 x     5  =     125
superc: Number of atoms, orbitals, and projectors:    250   3250   1000

outcell: Unit cell vectors (Ang):
       -0.000019    3.092442    3.092442
        3.092442   -0.000019    3.092442
        3.092442    3.092442   -0.000019

outcell: Cell vector modules (Ang)   :    4.373373    4.373373    4.373373
outcell: Cell angles (23,13,12) (deg):     60.0004     60.0004     60.0004
outcell: Cell volume (Ang**3)        :     59.1478
<dSpData1D:S at geom step 6
  <sparsity:sparsity for geom step 6
    nrows_g=26 nrows=14 sparsity=14.9438 nnzs=10102, refcount: 7>
  <dData1D:(new from dSpData1D) n=10102, refcount: 1>
refcount: 1>
new_DM -- step:     7
Re-using DM from previous geometries...
Number of DMs in history: 1
 DM extrapolation coefficients: 
1   1.00000
New DM after history re-use:
<dSpData2D:SpM extrapolated using coords
  <sparsity:sparsity for geom step 6
    nrows_g=26 nrows=14 sparsity=14.9438 nnzs=10102, refcount: 9>
  <dData2D:(temp array for extrapolation) n=10102 m=1, refcount: 1>
refcount: 1>
Note: For starting DM, Qtot, Tr[D*S] =          8.00000000          8.15515844
No. of atoms with KB's overlaping orbs in proc 0. Max # of overlaps:      17     161

InitMesh: MESH = 40 x 40 x 40 = 64000
InitMesh: Mesh cutoff (required, used) =   300.000   346.797 Ry
New grid distribution [1]: sub = 2
New grid distribution [2]: sub = 2
New grid distribution [3]: sub = 2
Setting up quadratic distribution...

        iscf     Eharris(eV)        E_KS(eV)     FreeEng(eV)     dDmax    Ef(eV) dHmax(eV)
   scf:    1     -212.564458     -212.781052     -212.781128  0.061501 -4.467006  0.054696
   scf:    2     -212.781214     -212.781144     -212.781220  0.002523 -4.420231  0.009207
   scf:    3     -212.781150     -212.781147     -212.781223  0.000348 -4.426813  0.000296
   scf:    4     -212.781147     -212.781147     -212.781223  0.000030 -4.426763  0.000224

SCF Convergence by DM+H criterion
max |DM_out - DM_in|         :     0.0000301727
max |H_out - H_in|      (eV) :     0.0002242713
SCF cycle converged after 4 iterations

Using DM_out to compute the final energy and forces
No. of atoms with KB's overlaping orbs in proc 0. Max # of overlaps:      17     161

siesta: E_KS(eV) =             -212.7811

siesta: Atomic forces (eV/Ang):
----------------------------------------
   Tot    0.000000    0.000000   -0.000000
----------------------------------------
   Max    0.000459
   Res    0.000459    sqrt( Sum f_i^2 / 3N )
----------------------------------------
   Max    0.000459    constrained

Stress tensor Voigt[x,y,z,yz,xz,xy] (kbar):      136.51      136.51      136.51        0.01        0.01        0.01
(Free)E + p*V (eV/cell)     -217.8209
Target enthalpy (eV/cell)     -212.7812

siesta: Stress tensor (static) (eV/Ang**3):
         0.085205    0.000004    0.000004
         0.000004    0.085205    0.000004
         0.000004    0.000004    0.085205

siesta: Pressure (static):       -136.51372222  kBar

siesta: Stress tensor (total) (eV/Ang**3):
         0.085205    0.000004    0.000004
         0.000004    0.085205    0.000004
         0.000004    0.000004    0.085205

siesta: Pressure (total):       -136.51372222  kBar

                     ====================================
                        Begin CG opt. move =      7
                     ====================================
k-point displ. along   1 input, could be:     0.00    0.50
k-point displ. along   2 input, could be:     0.00    0.50
k-point displ. along   3 input, could be:     0.00    0.50
 Kpoints in:          144 . Kpoints trimmed:          132

siesta: k-grid: Number of k-points = 132
siesta: k-points from Monkhorst-Pack grid
siesta: k-cutoff (effective) =    12.806 Ang
siesta: k-point supercell and displacements
siesta: k-grid:     6     0     0      0.000
siesta: k-grid:     0     6     0      0.000
siesta: k-grid:     0     0     6      0.000

superc: Internal auxiliary supercell:     5 x     5 x     5  =     125
superc: Number of atoms, orbitals, and projectors:    250   3250   1000

outcell: Unit cell vectors (Ang):
       -0.000023    3.018355    3.018355
        3.018355   -0.000023    3.018355
        3.018355    3.018355   -0.000023

outcell: Cell vector modules (Ang)   :    4.268599    4.268599    4.268599
outcell: Cell angles (23,13,12) (deg):     60.0005     60.0005     60.0005
outcell: Cell volume (Ang**3)        :     54.9979
<dSpData1D:S at geom step 7
  <sparsity:sparsity for geom step 7
    nrows_g=26 nrows=14 sparsity=14.9438 nnzs=10102, refcount: 7>
  <dData1D:(new from dSpData1D) n=10102, refcount: 1>
refcount: 1>
new_DM -- step:     8
Re-using DM from previous geometries...
Number of DMs in history: 1
 DM extrapolation coefficients: 
1   1.00000
New DM after history re-use:
<dSpData2D:SpM extrapolated using coords
  <sparsity:sparsity for geom step 7
    nrows_g=26 nrows=14 sparsity=14.9438 nnzs=10102, refcount: 9>
  <dData2D:(temp array for extrapolation) n=10102 m=1, refcount: 1>
refcount: 1>
Note: For starting DM, Qtot, Tr[D*S] =          8.00000000          8.15985851
No. of atoms with KB's overlaping orbs in proc 0. Max # of overlaps:      17     161

InitMesh: MESH = 40 x 40 x 40 = 64000
InitMesh: Mesh cutoff (required, used) =   300.000   364.030 Ry
New grid distribution [1]: sub = 2
New grid distribution [2]: sub = 2
New grid distribution [3]: sub = 2
Setting up quadratic distribution...

        iscf     Eharris(eV)        E_KS(eV)     FreeEng(eV)     dDmax    Ef(eV) dHmax(eV)
   scf:    1     -212.881655     -213.126862     -213.126862  0.080535 -4.363406  0.054326
   scf:    2     -213.127027     -213.126956     -213.126956  0.003324 -4.320669  0.008904
   scf:    3     -213.126962     -213.126959     -213.126959  0.000419 -4.326529  0.000349
   scf:    4     -213.126959     -213.126959     -213.126959  0.000032 -4.326485  0.000265

SCF Convergence by DM+H criterion
max |DM_out - DM_in|         :     0.0000318849
max |H_out - H_in|      (eV) :     0.0002653229
SCF cycle converged after 4 iterations

Using DM_out to compute the final energy and forces
No. of atoms with KB's overlaping orbs in proc 0. Max # of overlaps:      17     161

siesta: E_KS(eV) =             -213.1270

siesta: Atomic forces (eV/Ang):
----------------------------------------
   Tot    0.000000    0.000000   -0.000000
----------------------------------------
   Max    0.000953
   Res    0.000953    sqrt( Sum f_i^2 / 3N )
----------------------------------------
   Max    0.000953    constrained

Stress tensor Voigt[x,y,z,yz,xz,xy] (kbar):      129.90      129.90      129.90       -0.00       -0.00       -0.00
(Free)E + p*V (eV/cell)     -217.5859
Target enthalpy (eV/cell)     -213.1270

siesta: Stress tensor (static) (eV/Ang**3):
         0.081075   -0.000002   -0.000002
        -0.000002    0.081075   -0.000002
        -0.000002   -0.000002    0.081075

siesta: Pressure (static):       -129.89717453  kBar

siesta: Stress tensor (total) (eV/Ang**3):
         0.081075   -0.000002   -0.000002
        -0.000002    0.081075   -0.000002
        -0.000002   -0.000002    0.081075

siesta: Pressure (total):       -129.89717453  kBar

                     ====================================
                        Begin CG opt. move =      8
                     ====================================
k-point displ. along   1 input, could be:     0.00    0.50
k-point displ. along   2 input, could be:     0.00    0.50
k-point displ. along   3 input, could be:     0.00    0.50
 Kpoints in:          144 . Kpoints trimmed:          132

siesta: k-grid: Number of k-points = 132
siesta: k-points from Monkhorst-Pack grid
siesta: k-cutoff (effective) =    12.491 Ang
siesta: k-point supercell and displacements
siesta: k-grid:     6     0     0      0.000
siesta: k-grid:     0     6     0      0.000
siesta: k-grid:     0     0     6      0.000

superc: Internal auxiliary supercell:     5 x     5 x     5  =     125
superc: Number of atoms, orbitals, and projectors:    250   3250   1000

outcell: Unit cell vectors (Ang):
       -0.000027    2.944269    2.944269
        2.944269   -0.000027    2.944269
        2.944269    2.944269   -0.000027

outcell: Cell vector modules (Ang)   :    4.163825    4.163825    4.163825
outcell: Cell angles (23,13,12) (deg):     60.0006     60.0006     60.0006
outcell: Cell volume (Ang**3)        :     51.0468
<dSpData1D:S at geom step 8
  <sparsity:sparsity for geom step 8
    nrows_g=26 nrows=14 sparsity=14.9970 nnzs=10138, refcount: 7>
  <dData1D:(new from dSpData1D) n=10138, refcount: 1>
refcount: 1>
new_DM -- step:     9
Re-using DM from previous geometries...
Number of DMs in history: 1
 DM extrapolation coefficients: 
1   1.00000
New DM after history re-use:
<dSpData2D:SpM extrapolated using coords
  <sparsity:sparsity for geom step 8
    nrows_g=26 nrows=14 sparsity=14.9970 nnzs=10138, refcount: 9>
  <dData2D:(temp array for extrapolation) n=10138 m=1, refcount: 1>
refcount: 1>
Note: For starting DM, Qtot, Tr[D*S] =          8.00000000          8.16475354
No. of atoms with KB's overlaping orbs in proc 0. Max # of overlaps:      17     161

InitMesh: MESH = 36 x 36 x 36 = 46656
InitMesh: Mesh cutoff (required, used) =   300.000   309.890 Ry
New grid distribution [1]: sub = 2
New grid distribution [2]: sub = 2
New grid distribution [3]: sub = 2
Setting up quadratic distribution...

        iscf     Eharris(eV)        E_KS(eV)     FreeEng(eV)     dDmax    Ef(eV) dHmax(eV)
   scf:    1     -213.149628     -213.427658     -213.427658  0.077832 -4.174166  0.056520
   scf:    2     -213.427857     -213.427771     -213.427771  0.004385 -4.129985  0.009625
   scf:    3     -213.427780     -213.427776     -213.427776  0.000595 -4.136273  0.000331
   scf:    4     -213.427776     -213.427776     -213.427776  0.000028 -4.136229  0.000253

SCF Convergence by DM+H criterion
max |DM_out - DM_in|         :     0.0000276527
max |H_out - H_in|      (eV) :     0.0002525465
SCF cycle converged after 4 iterations

Using DM_out to compute the final energy and forces
No. of atoms with KB's overlaping orbs in proc 0. Max # of overlaps:      17     161

siesta: E_KS(eV) =             -213.4278

siesta: Atomic forces (eV/Ang):
----------------------------------------
   Tot    0.000000    0.000000   -0.000000
----------------------------------------
   Max    0.001244
   Res    0.001244    sqrt( Sum f_i^2 / 3N )
----------------------------------------
   Max    0.001244    constrained

Stress tensor Voigt[x,y,z,yz,xz,xy] (kbar):      111.95      111.95      111.95       -0.01       -0.01       -0.01
(Free)E + p*V (eV/cell)     -216.9945
Target enthalpy (eV/cell)     -213.4278

siesta: Stress tensor (static) (eV/Ang**3):
         0.069873   -0.000007   -0.000007
        -0.000007    0.069873   -0.000007
        -0.000007   -0.000007    0.069873

siesta: Pressure (static):       -111.94825190  kBar

siesta: Stress tensor (total) (eV/Ang**3):
         0.069873   -0.000007   -0.000007
        -0.000007    0.069873   -0.000007
        -0.000007   -0.000007    0.069873

siesta: Pressure (total):       -111.94825190  kBar

                     ====================================
                        Begin CG opt. move =      9
                     ====================================
k-point displ. along   1 input, could be:     0.00    0.50
k-point displ. along   2 input, could be:     0.00    0.50
k-point displ. along   3 input, could be:     0.00    0.50
 Kpoints in:          144 . Kpoints trimmed:          132

siesta: k-grid: Number of k-points = 132
siesta: k-points from Monkhorst-Pack grid
siesta: k-cutoff (effective) =    12.177 Ang
siesta: k-point supercell and displacements
siesta: k-grid:     6     0     0      0.000
siesta: k-grid:     0     6     0      0.000
siesta: k-grid:     0     0     6      0.000

superc: Internal auxiliary supercell:     5 x     5 x     5  =     125
superc: Number of atoms, orbitals, and projectors:    250   3250   1000

outcell: Unit cell vectors (Ang):
       -0.000030    2.870182    2.870182
        2.870182   -0.000030    2.870182
        2.870182    2.870182   -0.000030

outcell: Cell vector modules (Ang)   :    4.059050    4.059050    4.059050
outcell: Cell angles (23,13,12) (deg):     60.0007     60.0007     60.0007
outcell: Cell volume (Ang**3)        :     47.2895
<dSpData1D:S at geom step 9
  <sparsity:sparsity for geom step 9
    nrows_g=26 nrows=14 sparsity=14.9970 nnzs=10138, refcount: 7>
  <dData1D:(new from dSpData1D) n=10138, refcount: 1>
refcount: 1>
new_DM -- step:    10
Re-using DM from previous geometries...
Number of DMs in history: 1
 DM extrapolation coefficients: 
1   1.00000
New DM after history re-use:
<dSpData2D:SpM extrapolated using coords
  <sparsity:sparsity for geom step 9
    nrows_g=26 nrows=14 sparsity=14.9970 nnzs=10138, refcount: 9>
  <dData2D:(temp array for extrapolation) n=10138 m=1, refcount: 1>
refcount: 1>
Note: For starting DM, Qtot, Tr[D*S] =          8.00000000          8.16661849
No. of atoms with KB's overlaping orbs in proc 0. Max # of overlaps:      17     161

InitMesh: MESH = 36 x 36 x 36 = 46656
InitMesh: Mesh cutoff (required, used) =   300.000   326.093 Ry
New grid distribution [1]: sub = 2
New grid distribution [2]: sub = 2
New grid distribution [3]: sub = 2
Setting up quadratic distribution...

        iscf     Eharris(eV)        E_KS(eV)     FreeEng(eV)     dDmax    Ef(eV) dHmax(eV)
   scf:    1     -213.330516     -213.657491     -213.657491  0.087047 -3.901182  0.058304
   scf:    2     -213.657726     -213.657625     -213.657625  0.005696 -3.854802  0.010317
   scf:    3     -213.657635     -213.657630     -213.657630  0.000818 -3.861629  0.000326
   scf:    4     -213.657631     -213.657630     -213.657630  0.000022 -3.861590  0.000248

SCF Convergence by DM+H criterion
max |DM_out - DM_in|         :     0.0000218730
max |H_out - H_in|      (eV) :     0.0002481992
SCF cycle converged after 4 iterations

Using DM_out to compute the final energy and forces
No. of atoms with KB's overlaping orbs in proc 0. Max # of overlaps:      17     161

siesta: E_KS(eV) =             -213.6576

siesta: Atomic forces (eV/Ang):
----------------------------------------
   Tot   -0.000000    0.000000   -0.000000
----------------------------------------
   Max    0.001614
   Res    0.001614    sqrt( Sum f_i^2 / 3N )
----------------------------------------
   Max    0.001614    constrained

Stress tensor Voigt[x,y,z,yz,xz,xy] (kbar):       81.43       81.43       81.43       -0.03       -0.03       -0.03
(Free)E + p*V (eV/cell)     -216.0610
Target enthalpy (eV/cell)     -213.6576

siesta: Stress tensor (static) (eV/Ang**3):
         0.050823   -0.000017   -0.000017
        -0.000017    0.050823   -0.000017
        -0.000017   -0.000017    0.050823

siesta: Pressure (static):        -81.42791621  kBar

siesta: Stress tensor (total) (eV/Ang**3):
         0.050823   -0.000017   -0.000017
        -0.000017    0.050823   -0.000017
        -0.000017   -0.000017    0.050823

siesta: Pressure (total):        -81.42791621  kBar

                     ====================================
                        Begin CG opt. move =     10
                     ====================================
k-point displ. along   1 input, could be:     0.00    0.50
k-point displ. along   2 input, could be:     0.00    0.50
k-point displ. along   3 input, could be:     0.00    0.50
 Kpoints in:          144 . Kpoints trimmed:          132

siesta: k-grid: Number of k-points = 132
siesta: k-points from Monkhorst-Pack grid
siesta: k-cutoff (effective) =    11.863 Ang
siesta: k-point supercell and displacements
siesta: k-grid:     6     0     0      0.000
siesta: k-grid:     0     6     0      0.000
siesta: k-grid:     0     0     6      0.000

superc: Internal auxiliary supercell:     5 x     5 x     5  =     125
superc: Number of atoms, orbitals, and projectors:    250   3250   1000

outcell: Unit cell vectors (Ang):
       -0.000034    2.796096    2.796096
        2.796096   -0.000034    2.796096
        2.796096    2.796096   -0.000034

outcell: Cell vector modules (Ang)   :    3.954276    3.954276    3.954276
outcell: Cell angles (23,13,12) (deg):     60.0008     60.0008     60.0008
outcell: Cell volume (Ang**3)        :     43.7214
<dSpData1D:S at geom step 10
  <sparsity:sparsity for geom step 10
    nrows_g=26 nrows=14 sparsity=15.2633 nnzs=10318, refcount: 7>
  <dData1D:(new from dSpData1D) n=10318, refcount: 1>
refcount: 1>
new_DM -- step:    11
Re-using DM from previous geometries...
Number of DMs in history: 1
 DM extrapolation coefficients: 
1   1.00000
New DM after history re-use:
<dSpData2D:SpM extrapolated using coords
  <sparsity:sparsity for geom step 10
    nrows_g=26 nrows=14 sparsity=15.2633 nnzs=10318, refcount: 9>
  <dData2D:(temp array for extrapolation) n=10318 m=1, refcount: 1>
refcount: 1>
Note: For starting DM, Qtot, Tr[D*S] =          8.00000000          8.16717716
No. of atoms with KB's overlaping orbs in proc 0. Max # of overlaps:      17     161

InitMesh: MESH = 36 x 36 x 36 = 46656
InitMesh: Mesh cutoff (required, used) =   300.000   343.602 Ry
New grid distribution [1]: sub = 2
New grid distribution [2]: sub = 2
New grid distribution [3]: sub = 2
Setting up quadratic distribution...

        iscf     Eharris(eV)        E_KS(eV)     FreeEng(eV)     dDmax    Ef(eV) dHmax(eV)
   scf:    1     -213.399886     -213.790733     -213.790733  0.088991 -4.038330  0.059646
   scf:    2     -213.791005     -213.790889     -213.790889  0.007168 -3.989694  0.011001
   scf:    3     -213.790902     -213.790896     -213.790896  0.001081 -3.997090  0.000319
   scf:    4     -213.790896     -213.790896     -213.790896  0.000016 -3.997049  0.000243

SCF Convergence by DM+H criterion
max |DM_out - DM_in|         :     0.0000162761
max |H_out - H_in|      (eV) :     0.0002432154
SCF cycle converged after 4 iterations

Using DM_out to compute the final energy and forces
No. of atoms with KB's overlaping orbs in proc 0. Max # of overlaps:      17     161

siesta: E_KS(eV) =             -213.7909

siesta: Atomic forces (eV/Ang):
----------------------------------------
   Tot    0.000000    0.000000   -0.000000
----------------------------------------
   Max    0.002073
   Res    0.002073    sqrt( Sum f_i^2 / 3N )
----------------------------------------
   Max    0.002073    constrained

Stress tensor Voigt[x,y,z,yz,xz,xy] (kbar):       34.51       34.51       34.51       -0.05       -0.05       -0.05
(Free)E + p*V (eV/cell)     -214.7326
Target enthalpy (eV/cell)     -213.7909

siesta: Stress tensor (static) (eV/Ang**3):
         0.021538   -0.000032   -0.000032
        -0.000032    0.021538   -0.000032
        -0.000032   -0.000032    0.021538

siesta: Pressure (static):        -34.50844142  kBar

siesta: Stress tensor (total) (eV/Ang**3):
         0.021538   -0.000032   -0.000032
        -0.000032    0.021538   -0.000032
        -0.000032   -0.000032    0.021538

siesta: Pressure (total):        -34.50844142  kBar

                     ====================================
                        Begin CG opt. move =     11
                     ====================================
k-point displ. along   1 input, could be:     0.00    0.50
k-point displ. along   2 input, could be:     0.00    0.50
k-point displ. along   3 input, could be:     0.00    0.50
 Kpoints in:          144 . Kpoints trimmed:          132

siesta: k-grid: Number of k-points = 132
siesta: k-points from Monkhorst-Pack grid
siesta: k-cutoff (effective) =    11.549 Ang
siesta: k-point supercell and displacements
siesta: k-grid:     6     0     0      0.000
siesta: k-grid:     0     6     0      0.000
siesta: k-grid:     0     0     6      0.000

superc: Internal auxiliary supercell:     5 x     5 x     5  =     125
superc: Number of atoms, orbitals, and projectors:    250   3250   1000

outcell: Unit cell vectors (Ang):
       -0.000037    2.722009    2.722009
        2.722009   -0.000037    2.722009
        2.722009    2.722009   -0.000037

outcell: Cell vector modules (Ang)   :    3.849502    3.849502    3.849502
outcell: Cell angles (23,13,12) (deg):     60.0009     60.0009     60.0009
outcell: Cell volume (Ang**3)        :     40.3374
<dSpData1D:S at geom step 11
  <sparsity:sparsity for geom step 11
    nrows_g=26 nrows=14 sparsity=16.8580 nnzs=11396, refcount: 7>
  <dData1D:(new from dSpData1D) n=11396, refcount: 1>
refcount: 1>
new_DM -- step:    12
Re-using DM from previous geometries...
Number of DMs in history: 1
 DM extrapolation coefficients: 
1   1.00000
New DM after history re-use:
<dSpData2D:SpM extrapolated using coords
  <sparsity:sparsity for geom step 11
    nrows_g=26 nrows=14 sparsity=16.8580 nnzs=11396, refcount: 9>
  <dData2D:(temp array for extrapolation) n=11396 m=1, refcount: 1>
refcount: 1>
Note: For starting DM, Qtot, Tr[D*S] =          8.00000000          8.16702062
No. of atoms with KB's overlaping orbs in proc 0. Max # of overlaps:      17     161

InitMesh: MESH = 36 x 36 x 36 = 46656
InitMesh: Mesh cutoff (required, used) =   300.000   362.560 Ry
New grid distribution [1]: sub = 2
New grid distribution [2]: sub = 2
New grid distribution [3]: sub = 2
Setting up quadratic distribution...

        iscf     Eharris(eV)        E_KS(eV)     FreeEng(eV)     dDmax    Ef(eV) dHmax(eV)
   scf:    1     -213.326496     -213.795379     -213.795379  0.081235 -3.983225  0.059613
   scf:    2     -213.795678     -213.795552     -213.795552  0.008484 -3.933179  0.011362
   scf:    3     -213.795567     -213.795560     -213.795560  0.001319 -3.940946  0.000330
   scf:    4     -213.795560     -213.795560     -213.795560  0.000014 -3.940888  0.000252

SCF Convergence by DM+H criterion
max |DM_out - DM_in|         :     0.0000137439
max |H_out - H_in|      (eV) :     0.0002519466
SCF cycle converged after 4 iterations

Using DM_out to compute the final energy and forces
No. of atoms with KB's overlaping orbs in proc 0. Max # of overlaps:      17     161

siesta: E_KS(eV) =             -213.7956

siesta: Atomic forces (eV/Ang):
----------------------------------------
   Tot   -0.000000    0.000000    0.000000
----------------------------------------
   Max    0.002653
   Res    0.002653    sqrt( Sum f_i^2 / 3N )
----------------------------------------
   Max    0.002653    constrained

Stress tensor Voigt[x,y,z,yz,xz,xy] (kbar):      -35.24      -35.24      -35.24       -0.09       -0.09       -0.09
(Free)E + p*V (eV/cell)     -212.9083
Target enthalpy (eV/cell)     -213.7956

siesta: Stress tensor (static) (eV/Ang**3):
        -0.021997   -0.000054   -0.000054
        -0.000054   -0.021997   -0.000054
        -0.000054   -0.000054   -0.021997

siesta: Pressure (static):         35.24339112  kBar

siesta: Stress tensor (total) (eV/Ang**3):
        -0.021997   -0.000054   -0.000054
        -0.000054   -0.021997   -0.000054
        -0.000054   -0.000054   -0.021997

siesta: Pressure (total):         35.24339112  kBar

                     ====================================
                        Begin CG opt. move =     12
                     ====================================
k-point displ. along   1 input, could be:     0.00    0.50
k-point displ. along   2 input, could be:     0.00    0.50
k-point displ. along   3 input, could be:     0.00    0.50
 Kpoints in:          144 . Kpoints trimmed:          132

siesta: k-grid: Number of k-points = 132
siesta: k-points from Monkhorst-Pack grid
siesta: k-cutoff (effective) =    11.701 Ang
siesta: k-point supercell and displacements
siesta: k-grid:     6     0     0      0.000
siesta: k-grid:     0     6     0      0.000
siesta: k-grid:     0     0     6      0.000

superc: Internal auxiliary supercell:     5 x     5 x     5  =     125
superc: Number of atoms, orbitals, and projectors:    250   3250   1000

outcell: Unit cell vectors (Ang):
       -0.000035    2.757951    2.757951
        2.757951   -0.000035    2.757951
        2.757951    2.757951   -0.000035

outcell: Cell vector modules (Ang)   :    3.900332    3.900332    3.900332
outcell: Cell angles (23,13,12) (deg):     60.0008     60.0008     60.0008
outcell: Cell volume (Ang**3)        :     41.9564
<dSpData1D:S at geom step 12
  <sparsity:sparsity for geom step 12
    nrows_g=26 nrows=14 sparsity=16.7781 nnzs=11342, refcount: 7>
  <dData1D:(new from dSpData1D) n=11342, refcount: 1>
refcount: 1>
new_DM -- step:    13
Re-using DM from previous geometries...
Number of DMs in history: 1
 DM extrapolation coefficients: 
1   1.00000
New DM after history re-use:
<dSpData2D:SpM extrapolated using coords
  <sparsity:sparsity for geom step 12
    nrows_g=26 nrows=14 sparsity=16.7781 nnzs=11342, refcount: 9>
  <dData2D:(temp array for extrapolation) n=11342 m=1, refcount: 1>
refcount: 1>
Note: For starting DM, Qtot, Tr[D*S] =          8.00000000          7.91721803
No. of atoms with KB's overlaping orbs in proc 0. Max # of overlaps:      17     161

InitMesh: MESH = 36 x 36 x 36 = 46656
InitMesh: Mesh cutoff (required, used) =   300.000   353.172 Ry
New grid distribution [1]: sub = 2
New grid distribution [2]: sub = 2
New grid distribution [3]: sub = 2
Setting up quadratic distribution...

        iscf     Eharris(eV)        E_KS(eV)     FreeEng(eV)     dDmax    Ef(eV) dHmax(eV)
   scf:    1     -214.058384     -213.811735     -213.811735  0.038159 -4.024546  0.029006
   scf:    2     -213.811801     -213.811773     -213.811773  0.003836 -4.048850  0.005367
   scf:    3     -213.811776     -213.811775     -213.811775  0.000575 -4.045190  0.000174
   scf:    4     -213.811775     -213.811775     -213.811775  0.000007 -4.045220  0.000133

SCF Convergence by DM+H criterion
max |DM_out - DM_in|         :     0.0000068676
max |H_out - H_in|      (eV) :     0.0001327186
SCF cycle converged after 4 iterations

Using DM_out to compute the final energy and forces
No. of atoms with KB's overlaping orbs in proc 0. Max # of overlaps:      17     161

siesta: E_KS(eV) =             -213.8118

siesta: Atomic forces (eV/Ang):
----------------------------------------
   Tot    0.000000    0.000000   -0.000000
----------------------------------------
   Max    0.002368
   Res    0.002368    sqrt( Sum f_i^2 / 3N )
----------------------------------------
   Max    0.002368    constrained

Stress tensor Voigt[x,y,z,yz,xz,xy] (kbar):        2.00        2.00        2.00       -0.07       -0.07       -0.07
(Free)E + p*V (eV/cell)     -213.8641
Target enthalpy (eV/cell)     -213.8118

siesta: Stress tensor (static) (eV/Ang**3):
         0.001248   -0.000043   -0.000043
        -0.000043    0.001248   -0.000043
        -0.000043   -0.000043    0.001248

siesta: Pressure (static):         -1.99935269  kBar

siesta: Stress tensor (total) (eV/Ang**3):
         0.001248   -0.000043   -0.000043
        -0.000043    0.001248   -0.000043
        -0.000043   -0.000043    0.001248

siesta: Pressure (total):         -1.99935269  kBar

cgvc: Finished line minimization    1.  Mean atomic displacement =    0.3481

                     ====================================
                        Begin CG opt. move =     13
                     ====================================
k-point displ. along   1 input, could be:     0.00    0.50
k-point displ. along   2 input, could be:     0.00    0.50
k-point displ. along   3 input, could be:     0.00    0.50
 Kpoints in:          144 . Kpoints trimmed:          132

siesta: k-grid: Number of k-points = 132
siesta: k-points from Monkhorst-Pack grid
siesta: k-cutoff (effective) =    11.646 Ang
siesta: k-point supercell and displacements
siesta: k-grid:     6     0     0      0.000
siesta: k-grid:     0     6     0      0.000
siesta: k-grid:     0     0     6      0.000

superc: Internal auxiliary supercell:     5 x     5 x     5  =     125
superc: Number of atoms, orbitals, and projectors:    250   3250   1000

outcell: Unit cell vectors (Ang):
        0.020165    2.765259    2.765259
        2.765259    0.020165    2.765259
        2.765259    2.765259    0.020165

outcell: Cell vector modules (Ang)   :    3.910719    3.910719    3.910719
outcell: Cell angles (23,13,12) (deg):     59.5173     59.5173     59.5173
outcell: Cell volume (Ang**3)        :     41.8274
<dSpData1D:S at geom step 13
  <sparsity:sparsity for geom step 13
    nrows_g=26 nrows=14 sparsity=16.8314 nnzs=11378, refcount: 7>
  <dData1D:(new from dSpData1D) n=11378, refcount: 1>
refcount: 1>
new_DM -- step:    14
Re-using DM from previous geometries...
Number of DMs in history: 1
 DM extrapolation coefficients: 
1   1.00000
New DM after history re-use:
<dSpData2D:SpM extrapolated using coords
  <sparsity:sparsity for geom step 13
    nrows_g=26 nrows=14 sparsity=16.8314 nnzs=11378, refcount: 9>
  <dData2D:(temp array for extrapolation) n=11378 m=1, refcount: 1>
refcount: 1>
Note: For starting DM, Qtot, Tr[D*S] =          8.00000000          7.83996453
No. of atoms with KB's overlaping orbs in proc 0. Max # of overlaps:      20     185

InitMesh: MESH = 36 x 36 x 36 = 46656
InitMesh: Mesh cutoff (required, used) =   300.000   348.767 Ry
New grid distribution [1]: sub = 2
New grid distribution [2]: sub = 2
New grid distribution [3]: sub = 2
Setting up quadratic distribution...

        iscf     Eharris(eV)        E_KS(eV)     FreeEng(eV)     dDmax    Ef(eV) dHmax(eV)
   scf:    1     -212.860477     -213.125525     -213.125702  0.041883 -3.740449  0.130186
   scf:    2     -213.126397     -213.130941     -213.131118  0.015813 -3.817982  0.063630
   scf:    3     -213.136545     -213.134093     -213.134294  0.005279 -3.786995  0.033438
   scf:    4     -213.134485     -213.134301     -213.134486  0.000550 -3.786746  0.027039
   scf:    5     -213.134420     -213.134372     -213.134545  0.001240 -3.789487  0.014227
   scf:    6     -213.134379     -213.134376     -213.134549  0.000692 -3.792472  0.007618
   scf:    7     -213.134384     -213.134380     -213.134553  0.000750 -3.796255  0.002047
   scf:    8     -213.134383     -213.134382     -213.134555  0.000146 -3.797322  0.001186
   scf:    9     -213.134382     -213.134382     -213.134556  0.000064 -3.798011  0.001036
   scf:   10     -213.134382     -213.134382     -213.134557  0.000022 -3.798027  0.000795

SCF Convergence by DM+H criterion
max |DM_out - DM_in|         :     0.0000218730
max |H_out - H_in|      (eV) :     0.0007951416
SCF cycle converged after 10 iterations

Using DM_out to compute the final energy and forces
No. of atoms with KB's overlaping orbs in proc 0. Max # of overlaps:      20     185

siesta: E_KS(eV) =             -213.1344

siesta: Atomic forces (eV/Ang):
----------------------------------------
   Tot    0.000000    0.000000   -0.000000
----------------------------------------
   Max    1.153692
   Res    1.153691    sqrt( Sum f_i^2 / 3N )
----------------------------------------
   Max    1.153692    constrained

Stress tensor Voigt[x,y,z,yz,xz,xy] (kbar):      -31.47      -31.47      -31.47       58.26       58.26       58.26
(Free)E + p*V (eV/cell)     -212.3129
Target enthalpy (eV/cell)     -213.1346

siesta: Stress tensor (static) (eV/Ang**3):
        -0.019643    0.036364    0.036364
         0.036364   -0.019643    0.036364
         0.036364    0.036364   -0.019643

siesta: Pressure (static):         31.47188694  kBar

siesta: Stress tensor (total) (eV/Ang**3):
        -0.019643    0.036364    0.036364
         0.036364   -0.019643    0.036364
         0.036364    0.036364   -0.019643

siesta: Pressure (total):         31.47188694  kBar

                     ====================================
                        Begin CG opt. move =     14
                     ====================================
k-point displ. along   1 input, could be:     0.00    0.50
k-point displ. along   2 input, could be:     0.00    0.50
k-point displ. along   3 input, could be:     0.00    0.50
 Kpoints in:          144 . Kpoints trimmed:          132

siesta: k-grid: Number of k-points = 132
siesta: k-points from Monkhorst-Pack grid
siesta: k-cutoff (effective) =    11.701 Ang
siesta: k-point supercell and displacements
siesta: k-grid:     6     0     0      0.000
siesta: k-grid:     0     6     0      0.000
siesta: k-grid:     0     0     6      0.000

superc: Internal auxiliary supercell:     5 x     5 x     5  =     125
superc: Number of atoms, orbitals, and projectors:    250   3250   1000

outcell: Unit cell vectors (Ang):
        0.000008    2.757967    2.757967
        2.757967    0.000008    2.757967
        2.757967    2.757967    0.000008

outcell: Cell vector modules (Ang)   :    3.900354    3.900354    3.900354
outcell: Cell angles (23,13,12) (deg):     59.9998     59.9998     59.9998
outcell: Cell volume (Ang**3)        :     41.9561
<dSpData1D:S at geom step 14
  <sparsity:sparsity for geom step 14
    nrows_g=26 nrows=14 sparsity=16.7781 nnzs=11342, refcount: 7>
  <dData1D:(new from dSpData1D) n=11342, refcount: 1>
refcount: 1>
new_DM -- step:    15
Re-using DM from previous geometries...
Number of DMs in history: 1
 DM extrapolation coefficients: 
1   1.00000
New DM after history re-use:
<dSpData2D:SpM extrapolated using coords
  <sparsity:sparsity for geom step 14
    nrows_g=26 nrows=14 sparsity=16.7781 nnzs=11342, refcount: 9>
  <dData2D:(temp array for extrapolation) n=11342 m=1, refcount: 1>
refcount: 1>
Note: For starting DM, Qtot, Tr[D*S] =          8.00000000          7.91580723
No. of atoms with KB's overlaping orbs in proc 0. Max # of overlaps:      17     161

InitMesh: MESH = 36 x 36 x 36 = 46656
InitMesh: Mesh cutoff (required, used) =   300.000   353.174 Ry
New grid distribution [1]: sub = 2
New grid distribution [2]: sub = 2
New grid distribution [3]: sub = 2
Setting up quadratic distribution...

        iscf     Eharris(eV)        E_KS(eV)     FreeEng(eV)     dDmax    Ef(eV) dHmax(eV)
   scf:    1     -214.272733     -213.810600     -213.810600  0.041745 -4.124292  0.124022
   scf:    2     -213.812291     -213.811662     -213.811662  0.016108 -4.028506  0.024996
   scf:    3     -213.811851     -213.811767     -213.811767  0.003048 -4.046928  0.003240
   scf:    4     -213.811774     -213.811771     -213.811771  0.000137 -4.046534  0.002522
   scf:    5     -213.811775     -213.811773     -213.811773  0.000246 -4.045657  0.000948
   scf:    6     -213.811773     -213.811773     -213.811773  0.000042 -4.045479  0.000641

SCF Convergence by DM+H criterion
max |DM_out - DM_in|         :     0.0000422657
max |H_out - H_in|      (eV) :     0.0006413066
SCF cycle converged after 6 iterations

Using DM_out to compute the final energy and forces
No. of atoms with KB's overlaping orbs in proc 0. Max # of overlaps:      17     161

siesta: E_KS(eV) =             -213.8118

siesta: Atomic forces (eV/Ang):
----------------------------------------
   Tot    0.000000    0.000000   -0.000000
----------------------------------------
   Max    0.004586
   Res    0.004586    sqrt( Sum f_i^2 / 3N )
----------------------------------------
   Max    0.004586    constrained

Stress tensor Voigt[x,y,z,yz,xz,xy] (kbar):        1.96        1.96        1.96        0.13        0.13        0.13
(Free)E + p*V (eV/cell)     -213.8630
Target enthalpy (eV/cell)     -213.8118

siesta: Stress tensor (static) (eV/Ang**3):
         0.001221    0.000079    0.000079
         0.000079    0.001221    0.000079
         0.000079    0.000079    0.001221

siesta: Pressure (static):         -1.95563969  kBar

siesta: Stress tensor (total) (eV/Ang**3):
         0.001221    0.000079    0.000079
         0.000079    0.001221    0.000079
         0.000079    0.000079    0.001221

siesta: Pressure (total):         -1.95563969  kBar

cgvc: Finished line minimization    2.  Mean atomic displacement =    0.0008

                     ====================================
                        Begin CG opt. move =     15
                     ====================================
k-point displ. along   1 input, could be:     0.00    0.50
k-point displ. along   2 input, could be:     0.00    0.50
k-point displ. along   3 input, could be:     0.00    0.50
 Kpoints in:          144 . Kpoints trimmed:          132

siesta: k-grid: Number of k-points = 132
siesta: k-points from Monkhorst-Pack grid
siesta: k-cutoff (effective) =    11.700 Ang
siesta: k-point supercell and displacements
siesta: k-grid:     6     0     0      0.000
siesta: k-grid:     0     6     0      0.000
siesta: k-grid:     0     0     6      0.000

superc: Internal auxiliary supercell:     5 x     5 x     5  =     125
superc: Number of atoms, orbitals, and projectors:    250   3250   1000

outcell: Unit cell vectors (Ang):
       -0.000009    2.757752    2.757752
        2.757752   -0.000009    2.757752
        2.757752    2.757752   -0.000009

outcell: Cell vector modules (Ang)   :    3.900050    3.900050    3.900050
outcell: Cell angles (23,13,12) (deg):     60.0002     60.0002     60.0002
outcell: Cell volume (Ang**3)        :     41.9467
<dSpData1D:S at geom step 15
  <sparsity:sparsity for geom step 15
    nrows_g=26 nrows=14 sparsity=16.7781 nnzs=11342, refcount: 7>
  <dData1D:(new from dSpData1D) n=11342, refcount: 1>
refcount: 1>
new_DM -- step:    16
Re-using DM from previous geometries...
Number of DMs in history: 1
 DM extrapolation coefficients: 
1   1.00000
New DM after history re-use:
<dSpData2D:SpM extrapolated using coords
  <sparsity:sparsity for geom step 15
    nrows_g=26 nrows=14 sparsity=16.7781 nnzs=11342, refcount: 9>
  <dData2D:(temp array for extrapolation) n=11342 m=1, refcount: 1>
refcount: 1>
No. of atoms with KB's overlaping orbs in proc 0. Max # of overlaps:      17     161

InitMesh: MESH = 36 x 36 x 36 = 46656
InitMesh: Mesh cutoff (required, used) =   300.000   353.228 Ry
New grid distribution [1]: sub = 2
New grid distribution [2]: sub = 2
New grid distribution [3]: sub = 2
Setting up quadratic distribution...

        iscf     Eharris(eV)        E_KS(eV)     FreeEng(eV)     dDmax    Ef(eV) dHmax(eV)
   scf:    1     -213.810451     -213.811786     -213.811786  0.000123 -4.046507  0.000106
   scf:    2     -213.811786     -213.811786     -213.811786  0.000013 -4.046438  0.000055

SCF Convergence by DM+H criterion
max |DM_out - DM_in|         :     0.0000127335
max |H_out - H_in|      (eV) :     0.0000549995
SCF cycle converged after 2 iterations

Using DM_out to compute the final energy and forces
No. of atoms with KB's overlaping orbs in proc 0. Max # of overlaps:      17     161

siesta: E_KS(eV) =             -213.8118

siesta: Atomic forces (eV/Ang):
----------------------------------------
   Tot    0.000000    0.000000   -0.000000
----------------------------------------
   Max    0.001533
   Res    0.001533    sqrt( Sum f_i^2 / 3N )
----------------------------------------
   Max    0.001533    constrained

Stress tensor Voigt[x,y,z,yz,xz,xy] (kbar):        1.79        1.79        1.79        0.04        0.04        0.04
(Free)E + p*V (eV/cell)     -213.8586
Target enthalpy (eV/cell)     -213.8118

siesta: Stress tensor (static) (eV/Ang**3):
         0.001115    0.000026    0.000026
         0.000026    0.001115    0.000026
         0.000026    0.000026    0.001115

siesta: Pressure (static):         -1.78636716  kBar

siesta: Stress tensor (total) (eV/Ang**3):
         0.001115    0.000026    0.000026
         0.000026    0.001115    0.000026
         0.000026    0.000026    0.001115

siesta: Pressure (total):         -1.78636716  kBar

                     ====================================
                        Begin CG opt. move =     16
                     ====================================
k-point displ. along   1 input, could be:     0.00    0.50
k-point displ. along   2 input, could be:     0.00    0.50
k-point displ. along   3 input, could be:     0.00    0.50
 Kpoints in:          144 . Kpoints trimmed:          132

siesta: k-grid: Number of k-points = 132
siesta: k-points from Monkhorst-Pack grid
siesta: k-cutoff (effective) =    11.699 Ang
siesta: k-point supercell and displacements
siesta: k-grid:     6     0     0      0.000
siesta: k-grid:     0     6     0      0.000
siesta: k-grid:     0     0     6      0.000

superc: Internal auxiliary supercell:     5 x     5 x     5  =     125
superc: Number of atoms, orbitals, and projectors:    250   3250   1000

outcell: Unit cell vectors (Ang):
       -0.000037    2.757408    2.757408
        2.757408   -0.000037    2.757408
        2.757408    2.757408   -0.000037

outcell: Cell vector modules (Ang)   :    3.899564    3.899564    3.899564
outcell: Cell angles (23,13,12) (deg):     60.0009     60.0009     60.0009
outcell: Cell volume (Ang**3)        :     41.9317
<dSpData1D:S at geom step 16
  <sparsity:sparsity for geom step 16
    nrows_g=26 nrows=14 sparsity=16.7781 nnzs=11342, refcount: 7>
  <dData1D:(new from dSpData1D) n=11342, refcount: 1>
refcount: 1>
new_DM -- step:    17
Re-using DM from previous geometries...
Number of DMs in history: 1
 DM extrapolation coefficients: 
1   1.00000
New DM after history re-use:
<dSpData2D:SpM extrapolated using coords
  <sparsity:sparsity for geom step 16
    nrows_g=26 nrows=14 sparsity=16.7781 nnzs=11342, refcount: 9>
  <dData2D:(temp array for extrapolation) n=11342 m=1, refcount: 1>
refcount: 1>
No. of atoms with KB's overlaping orbs in proc 0. Max # of overlaps:      17     161

InitMesh: MESH = 36 x 36 x 36 = 46656
InitMesh: Mesh cutoff (required, used) =   300.000   353.310 Ry
New grid distribution [1]: sub = 2
New grid distribution [2]: sub = 2
New grid distribution [3]: sub = 2
Setting up quadratic distribution...

        iscf     Eharris(eV)        E_KS(eV)     FreeEng(eV)     dDmax    Ef(eV) dHmax(eV)
   scf:    1     -213.809660     -213.811801     -213.811801  0.000360 -4.047982  0.000287
   scf:    2     -213.811801     -213.811801     -213.811801  0.000036 -4.047760  0.000148

SCF Convergence by DM+H criterion
max |DM_out - DM_in|         :     0.0000356045
max |H_out - H_in|      (eV) :     0.0001478405
SCF cycle converged after 2 iterations

Using DM_out to compute the final energy and forces
No. of atoms with KB's overlaping orbs in proc 0. Max # of overlaps:      17     161

siesta: E_KS(eV) =             -213.8118

siesta: Atomic forces (eV/Ang):
----------------------------------------
   Tot    0.000000   -0.000000    0.000000
----------------------------------------
   Max    0.003259
   Res    0.003259    sqrt( Sum f_i^2 / 3N )
----------------------------------------
   Max    0.003259    constrained

Stress tensor Voigt[x,y,z,yz,xz,xy] (kbar):        1.47        1.47        1.47       -0.09       -0.09       -0.09
(Free)E + p*V (eV/cell)     -213.8502
Target enthalpy (eV/cell)     -213.8118

siesta: Stress tensor (static) (eV/Ang**3):
         0.000917   -0.000058   -0.000058
        -0.000058    0.000917   -0.000058
        -0.000058   -0.000058    0.000917

siesta: Pressure (static):         -1.46883604  kBar

siesta: Stress tensor (total) (eV/Ang**3):
         0.000917   -0.000058   -0.000058
        -0.000058    0.000917   -0.000058
        -0.000058   -0.000058    0.000917

siesta: Pressure (total):         -1.46883604  kBar

                     ====================================
                        Begin CG opt. move =     17
                     ====================================
k-point displ. along   1 input, could be:     0.00    0.50
k-point displ. along   2 input, could be:     0.00    0.50
k-point displ. along   3 input, could be:     0.00    0.50
 Kpoints in:          144 . Kpoints trimmed:          132

siesta: k-grid: Number of k-points = 132
siesta: k-points from Monkhorst-Pack grid
siesta: k-cutoff (effective) =    11.696 Ang
siesta: k-point supercell and displacements
siesta: k-grid:     6     0     0      0.000
siesta: k-grid:     0     6     0      0.000
siesta: k-grid:     0     0     6      0.000

superc: Internal auxiliary supercell:     5 x     5 x     5  =     125
superc: Number of atoms, orbitals, and projectors:    250   3250   1000

outcell: Unit cell vectors (Ang):
       -0.000082    2.756859    2.756859
        2.756859   -0.000082    2.756859
        2.756859    2.756859   -0.000082

outcell: Cell vector modules (Ang)   :    3.898787    3.898787    3.898787
outcell: Cell angles (23,13,12) (deg):     60.0020     60.0020     60.0020
outcell: Cell volume (Ang**3)        :     41.9076
<dSpData1D:S at geom step 17
  <sparsity:sparsity for geom step 17
    nrows_g=26 nrows=14 sparsity=16.7781 nnzs=11342, refcount: 7>
  <dData1D:(new from dSpData1D) n=11342, refcount: 1>
refcount: 1>
new_DM -- step:    18
Re-using DM from previous geometries...
Number of DMs in history: 1
 DM extrapolation coefficients: 
1   1.00000
New DM after history re-use:
<dSpData2D:SpM extrapolated using coords
  <sparsity:sparsity for geom step 17
    nrows_g=26 nrows=14 sparsity=16.7781 nnzs=11342, refcount: 9>
  <dData2D:(temp array for extrapolation) n=11342 m=1, refcount: 1>
refcount: 1>
No. of atoms with KB's overlaping orbs in proc 0. Max # of overlaps:      17     161

InitMesh: MESH = 36 x 36 x 36 = 46656
InitMesh: Mesh cutoff (required, used) =   300.000   353.442 Ry
New grid distribution [1]: sub = 2
New grid distribution [2]: sub = 2
New grid distribution [3]: sub = 2
Setting up quadratic distribution...

        iscf     Eharris(eV)        E_KS(eV)     FreeEng(eV)     dDmax    Ef(eV) dHmax(eV)
   scf:    1     -213.808375     -213.811807     -213.811807  0.000581 -4.049772  0.000489
   scf:    2     -213.811807     -213.811807     -213.811807  0.000058 -4.049411  0.000252

SCF Convergence by DM+H criterion
max |DM_out - DM_in|         :     0.0000577994
max |H_out - H_in|      (eV) :     0.0002521952
SCF cycle converged after 2 iterations

Using DM_out to compute the final energy and forces
No. of atoms with KB's overlaping orbs in proc 0. Max # of overlaps:      17     161

siesta: E_KS(eV) =             -213.8118

siesta: Atomic forces (eV/Ang):
----------------------------------------
   Tot    0.000000    0.000000    0.000000
----------------------------------------
   Max    0.010957
   Res    0.010957    sqrt( Sum f_i^2 / 3N )
----------------------------------------
   Max    0.010957    constrained

Stress tensor Voigt[x,y,z,yz,xz,xy] (kbar):        0.96        0.96        0.96       -0.31       -0.31       -0.31
(Free)E + p*V (eV/cell)     -213.8368
Target enthalpy (eV/cell)     -213.8118

siesta: Stress tensor (static) (eV/Ang**3):
         0.000597   -0.000195   -0.000195
        -0.000195    0.000597   -0.000195
        -0.000195   -0.000195    0.000597

siesta: Pressure (static):         -0.95576559  kBar

siesta: Stress tensor (total) (eV/Ang**3):
         0.000597   -0.000195   -0.000195
        -0.000195    0.000597   -0.000195
        -0.000195   -0.000195    0.000597

siesta: Pressure (total):         -0.95576559  kBar

                     ====================================
                        Begin CG opt. move =     18
                     ====================================
k-point displ. along   1 input, could be:     0.00    0.50
k-point displ. along   2 input, could be:     0.00    0.50
k-point displ. along   3 input, could be:     0.00    0.50
 Kpoints in:          144 . Kpoints trimmed:          132

siesta: k-grid: Number of k-points = 132
siesta: k-points from Monkhorst-Pack grid
siesta: k-cutoff (effective) =    11.697 Ang
siesta: k-point supercell and displacements
siesta: k-grid:     6     0     0      0.000
siesta: k-grid:     0     6     0      0.000
siesta: k-grid:     0     0     6      0.000

superc: Internal auxiliary supercell:     5 x     5 x     5  =     125
superc: Number of atoms, orbitals, and projectors:    250   3250   1000

outcell: Unit cell vectors (Ang):
       -0.000065    2.757070    2.757070
        2.757070   -0.000065    2.757070
        2.757070    2.757070   -0.000065

outcell: Cell vector modules (Ang)   :    3.899085    3.899085    3.899085
outcell: Cell angles (23,13,12) (deg):     60.0016     60.0016     60.0016
outcell: Cell volume (Ang**3)        :     41.9168
<dSpData1D:S at geom step 18
  <sparsity:sparsity for geom step 18
    nrows_g=26 nrows=14 sparsity=16.7781 nnzs=11342, refcount: 7>
  <dData1D:(new from dSpData1D) n=11342, refcount: 1>
refcount: 1>
new_DM -- step:    19
Re-using DM from previous geometries...
Number of DMs in history: 1
 DM extrapolation coefficients: 
1   1.00000
New DM after history re-use:
<dSpData2D:SpM extrapolated using coords
  <sparsity:sparsity for geom step 18
    nrows_g=26 nrows=14 sparsity=16.7781 nnzs=11342, refcount: 9>
  <dData2D:(temp array for extrapolation) n=11342 m=1, refcount: 1>
refcount: 1>
No. of atoms with KB's overlaping orbs in proc 0. Max # of overlaps:      17     161

InitMesh: MESH = 36 x 36 x 36 = 46656
InitMesh: Mesh cutoff (required, used) =   300.000   353.391 Ry
New grid distribution [1]: sub = 2
New grid distribution [2]: sub = 2
New grid distribution [3]: sub = 2
Setting up quadratic distribution...

        iscf     Eharris(eV)        E_KS(eV)     FreeEng(eV)     dDmax    Ef(eV) dHmax(eV)
   scf:    1     -213.813125     -213.811807     -213.811807  0.000211 -4.048709  0.000146
   scf:    2     -213.811807     -213.811807     -213.811807  0.000019 -4.048830  0.000027

SCF Convergence by DM+H criterion
max |DM_out - DM_in|         :     0.0000193760
max |H_out - H_in|      (eV) :     0.0000266229
SCF cycle converged after 2 iterations

Using DM_out to compute the final energy and forces
No. of atoms with KB's overlaping orbs in proc 0. Max # of overlaps:      17     161

siesta: E_KS(eV) =             -213.8118

siesta: Atomic forces (eV/Ang):
----------------------------------------
   Tot    0.000000   -0.000000    0.000000
----------------------------------------
   Max    0.007890
   Res    0.007890    sqrt( Sum f_i^2 / 3N )
----------------------------------------
   Max    0.007890    constrained

Stress tensor Voigt[x,y,z,yz,xz,xy] (kbar):        1.15        1.15        1.15       -0.22       -0.22       -0.22
(Free)E + p*V (eV/cell)     -213.8418
Target enthalpy (eV/cell)     -213.8118

siesta: Stress tensor (static) (eV/Ang**3):
         0.000716   -0.000140   -0.000140
        -0.000140    0.000716   -0.000140
        -0.000140   -0.000140    0.000716

siesta: Pressure (static):         -1.14725617  kBar

siesta: Stress tensor (total) (eV/Ang**3):
         0.000716   -0.000140   -0.000140
        -0.000140    0.000716   -0.000140
        -0.000140   -0.000140    0.000716

siesta: Pressure (total):         -1.14725617  kBar

cgvc: Finished line minimization    3.  Mean atomic displacement =    0.0032

                     ====================================
                        Begin CG opt. move =     19
                     ====================================
k-point displ. along   1 input, could be:     0.00    0.50
k-point displ. along   2 input, could be:     0.00    0.50
k-point displ. along   3 input, could be:     0.00    0.50
 Kpoints in:          144 . Kpoints trimmed:          132

siesta: k-grid: Number of k-points = 132
siesta: k-points from Monkhorst-Pack grid
siesta: k-cutoff (effective) =    11.693 Ang
siesta: k-point supercell and displacements
siesta: k-grid:     6     0     0      0.000
siesta: k-grid:     0     6     0      0.000
siesta: k-grid:     0     0     6      0.000

superc: Internal auxiliary supercell:     5 x     5 x     5  =     125
superc: Number of atoms, orbitals, and projectors:    250   3250   1000

outcell: Unit cell vectors (Ang):
       -0.000014    2.756176    2.756176
        2.756176   -0.000014    2.756176
        2.756176    2.756176   -0.000014

outcell: Cell vector modules (Ang)   :    3.897821    3.897821    3.897821
outcell: Cell angles (23,13,12) (deg):     60.0003     60.0003     60.0003
outcell: Cell volume (Ang**3)        :     41.8749
<dSpData1D:S at geom step 19
  <sparsity:sparsity for geom step 19
    nrows_g=26 nrows=14 sparsity=16.7781 nnzs=11342, refcount: 7>
  <dData1D:(new from dSpData1D) n=11342, refcount: 1>
refcount: 1>
new_DM -- step:    20
Re-using DM from previous geometries...
Number of DMs in history: 1
 DM extrapolation coefficients: 
1   1.00000
New DM after history re-use:
<dSpData2D:SpM extrapolated using coords
  <sparsity:sparsity for geom step 19
    nrows_g=26 nrows=14 sparsity=16.7781 nnzs=11342, refcount: 9>
  <dData2D:(temp array for extrapolation) n=11342 m=1, refcount: 1>
refcount: 1>
No. of atoms with KB's overlaping orbs in proc 0. Max # of overlaps:      17     161

InitMesh: MESH = 36 x 36 x 36 = 46656
InitMesh: Mesh cutoff (required, used) =   300.000   353.631 Ry
New grid distribution [1]: sub = 2
New grid distribution [2]: sub = 2
New grid distribution [3]: sub = 2
Setting up quadratic distribution...

        iscf     Eharris(eV)        E_KS(eV)     FreeEng(eV)     dDmax    Ef(eV) dHmax(eV)
   scf:    1     -213.805853     -213.811832     -213.811832  0.000999 -4.054769  0.000738
   scf:    2     -213.811832     -213.811832     -213.811832  0.000098 -4.054150  0.000217

SCF Convergence by DM+H criterion
max |DM_out - DM_in|         :     0.0000981203
max |H_out - H_in|      (eV) :     0.0002174529
SCF cycle converged after 2 iterations

Using DM_out to compute the final energy and forces
No. of atoms with KB's overlaping orbs in proc 0. Max # of overlaps:      17     161

siesta: E_KS(eV) =             -213.8118

siesta: Atomic forces (eV/Ang):
----------------------------------------
   Tot    0.000000    0.000000   -0.000000
----------------------------------------
   Max    0.000130
   Res    0.000130    sqrt( Sum f_i^2 / 3N )
----------------------------------------
   Max    0.000130    constrained

Stress tensor Voigt[x,y,z,yz,xz,xy] (kbar):        0.25        0.25        0.25       -0.00       -0.00       -0.00
(Free)E + p*V (eV/cell)     -213.8185
Target enthalpy (eV/cell)     -213.8118

siesta: Stress tensor (static) (eV/Ang**3):
         0.000158   -0.000002   -0.000002
        -0.000002    0.000158   -0.000002
        -0.000002   -0.000002    0.000158

siesta: Pressure (static):         -0.25321275  kBar

siesta: Stress tensor (total) (eV/Ang**3):
         0.000158   -0.000002   -0.000002
        -0.000002    0.000158   -0.000002
        -0.000002   -0.000002    0.000158

siesta: Pressure (total):         -0.25321275  kBar

outcoor: Relaxed atomic coordinates (fractional):           
    0.24999863    0.24999863    0.24999863   1       1  Si
    0.00000137    0.00000137    0.00000137   1       2  Si

outcell: Unit cell vectors (Ang):
       -0.000014    2.756176    2.756176
        2.756176   -0.000014    2.756176
        2.756176    2.756176   -0.000014

outcell: Cell vector modules (Ang)   :    3.897821    3.897821    3.897821
outcell: Cell angles (23,13,12) (deg):     60.0003     60.0003     60.0003
outcell: Cell volume (Ang**3)        :     41.8749

siesta: Program's energy decomposition (eV):
siesta: Ebs     =       -75.417829
siesta: Eions   =       444.480597
siesta: Ena     =       174.516798
siesta: Ekin    =        81.017245
siesta: Enl     =        35.376728
siesta: Eso     =         0.000000
siesta: Edftu   =         0.000000
siesta: DEna    =         4.085058
siesta: DUscf   =         0.293852
siesta: DUext   =         0.000000
siesta: Ex      =       -56.417263
siesta: Ec      =        -8.203653
siesta: Exc     =       -64.620916
siesta: EbV     =         0.000000
siesta: eta*DQ  =         0.000000
siesta: Emadel  =         0.000000
siesta: Emeta   =         0.000000
siesta: Emolmec =         0.000000
siesta: Ekinion =         0.000000
siesta: Eharris =      -213.811832
siesta: Etot    =      -213.811832
siesta: FreeEng =      -213.811832

siesta: Final energy (eV):
siesta:  Band Struct. =     -75.417829
siesta:       Kinetic =      81.017245
siesta:       Hartree =      15.204058
siesta:         Edftu =       0.000000
siesta:       Eso     =       0.000000
siesta:    Ext. field =       0.000000
siesta:         Exch. =     -56.417263
siesta:         Corr. =      -8.203653
siesta:     Bulk bias =       0.000000
siesta:   Exch.-corr. =     -64.620916
siesta:  Ion-electron =    -102.765901
siesta:       Ion-ion =    -142.646319
siesta:       Ekinion =       0.000000
siesta: D3 dispersion =       0.000000
siesta:         Total =    -213.811832
siesta:         Fermi =      -4.054150

siesta: Stress tensor (static) (eV/Ang**3):
siesta:     0.000158   -0.000002   -0.000002
siesta:    -0.000002    0.000158   -0.000002
siesta:    -0.000002   -0.000002    0.000158

siesta: Constrained stress tensor (static) (eV/Ang**3):
siesta:     0.000158   -0.000002   -0.000002
siesta:    -0.000002    0.000158   -0.000002
siesta:    -0.000002   -0.000002    0.000158

siesta: Cell volume =         41.874931 Ang**3

siesta: Pressure (static):
siesta:                Solid            Molecule  Units
siesta:          -0.00000172         -0.00000177  Ry/Bohr**3
siesta:          -0.00015804         -0.00016232  eV/Ang**3
siesta:          -0.25321275         -0.26006575  kBar
(Free)E+ p_basis*V_orbitals  =        -212.296877
(Free)Eharris+ p_basis*V_orbitals  =        -212.296877

cite: Please see "Si-diamond.bib" for an exhaustive BiBTeX file.
cite: Please clearly indicate Siesta version in published work: 5.0.1
cite: This calculation has made use of the following articles
cite: which are encouraged to be cited in a published work.
        Primary SIESTA paper
          DOI: www.doi.org/10.1088/0953-8984/14/11/302


>> End of run:   5-DEC-2024  17:43:00
Job completed
