Executable      : siesta
Version         : 5.0.1
Architecture    : x86_64
Compiler version: GNU-12.4.0
Compiler flags  : -march=nocona -mtune=haswell -ftree-vectorize -fPIC -fstack-protector-strong -fno-plt -O2 -ffunction-sections -pipe -isystem <prefix>/include -fdebug-prefix-map=<prefix>/work=/usr/local/src/conda/siesta-5.0.1 -fdebug-prefix-map=<prefix>=/usr/local/src/conda-prefix -I<prefix>/lib -fallow-argument-mismatch -O3
Parallelisations: MPI
NetCDF support
NetCDF-4 support
NetCDF-4 MPI-IO support
Lua support
Native ELPA support
DFT-D3 support

Runtime information:
* Directory : /home/carlos/documents/siesta-hands-on/siesta-complete-guide/Chapter-8/k-points/ec_2
* Running on 2 nodes in parallel.
>> Start of run:   5-DEC-2024  17:22:29

                           *********************** 
                           *  WELCOME TO SIESTA  * 
                           *********************** 

 NOTE: Siesta V5 introduces some new defaults for basis-set generation
 NOTE: which might lead to slightly different numerical results.
 NOTE: Please see the manual for full details and compatibility measures.


reinit: Reading from file calc.fdf

reinit: -----------------------------------------------------------------------
reinit: System Name: Si bulk diamond
reinit: -----------------------------------------------------------------------
reinit: System Label: Si-diamond
reinit: -----------------------------------------------------------------------

initatom: Reading input for the pseudopotentials and atomic orbitals ----------
Species number:   1 Atomic number:   14 Label: Si

Ground state valence configuration (from tables):   3s02  3p02  3d00  4f00

---- Processing specs for species: Si
Reading pseudopotential information in unformatted form from:
  Si.vps

---- Pseudopotential check for Si

Pseudized shells:
3s( 2.00) rc: 1.23
3p( 2.00) rc: 1.43
Valence configuration for ps generation: (assumed as above)
For Si, standard SIESTA heuristics set lmxkb to 3
 (one more than the basis l, including polarization orbitals).
Use PS.lmax or PS.KBprojectors blocks to override.
Si pseudopotential only contains V_ls up to l=1 -- lmxkb reset.

<basis_specs>
===============================================================================
Si                   Z=  14    Mass=  28.090        Charge= 0.17977+309
Lmxo=2 Lmxkb= 1    BasisType=split      Semic=F
L=0  Nsemic=0  Cnfigmx=3
          i=1  nzeta=2  polorb=0  (3s)
            splnorm:   0.15000    
               vcte:    40.000    
               rinn:  -0.90000    
               qcoe:    0.0000    
               qyuk:    0.0000    
               qwid:   0.10000E-01
                rcs:    0.0000      0.0000    
            lambdas:    1.0000      1.0000    
L=1  Nsemic=0  Cnfigmx=3
          i=1  nzeta=2  polorb=1  (3p)  (to be polarized perturbatively)
            splnorm:   0.15000    
               vcte:    40.000    
               rinn:  -0.90000    
               qcoe:    0.0000    
               qyuk:    0.0000    
               qwid:   0.10000E-01
                rcs:    0.0000      0.0000    
            lambdas:    1.0000      1.0000    
L=2  Nsemic=0  Cnfigmx=3
          i=1  nzeta=0  polorb=0  (3d)  (perturbative polarization orbital) (from 3p)
-------------------------------------------------------------------------------
L=0  Nkbl=1  erefs: 0.17977+309
L=1  Nkbl=1  erefs: 0.17977+309
===============================================================================
</basis_specs>

Using PAO.SplitTailNorm
atom: Called for Si                    (Z =  14)
NOTE: Si pseudopotential has channels up to l= 1
NOTE: PAOs with higher l will be generated with V_local
Maximum radius (at nrval) set to   50.00000 8518

read_vps: Pseudopotential generation method:
read_vps: ATM4.2.7  Kerker                                  
Valence charge in pseudo generation:    4.00000

xc_check: Exchange-correlation functional:
xc_check: GGA Perdew, Burke & Ernzerhof 1996
V l=0 = -2*Zval/r beyond r=  2.8074
V l=1 = -2*Zval/r beyond r=  2.8074
All V_l potentials equal beyond r=  1.5163
This should be close to max(r_c) in ps generation
All pots = -2*Zval/r beyond r=  2.8074
Using large-core scheme (fit) for Vlocal

atom: Estimated core radius    2.80744

atom: Including non-local core corrections could be a good idea
Fit of Vlocal with continuous 2nd derivative
Fitting vlocal at       1.5209
Choosing vlocal chloc cutoff:  5726  3.054333
qtot up to nchloc:    3.99984030
atom: Maximum radius for chlocal:    3.05433
atom: Maximum radius for r*vlocal+2*Zval:    3.05433

KBgen: Kleinman-Bylander projectors: 
GHOST: No ghost state for L =  0
   l= 0   rc=  1.511703   el= -0.791527   Ekb=  6.361810   kbcos=  0.278083
GHOST: No ghost state for L =  1
   l= 1   rc=  1.575389   el= -0.300579   Ekb=  2.611741   kbcos=  0.260518

KBgen: Total number of Kleinman-Bylander projectors:   4
atom: -------------------------------------------------------------------------

atom: SANKEY-TYPE ORBITALS:
atom: Selected multiple-zeta basis: split     

SPLIT: Orbitals with angular momentum L= 0

SPLIT: Basis orbitals for state 3s

SPLIT: PAO cut-off radius determined from an
SPLIT: energy shift=  0.010000 Ry
Split based on tail norm

   izeta = 1
                 lambda =    1.000000
                     rc =    5.403143
                 energy =   -0.779945
                kinetic =    0.563858
    potential(screened) =   -1.343803
       potential(ionic) =   -3.794934

   izeta = 2
                 rmatch =    3.854490
              splitnorm =    0.150000
                 energy =   -0.529540
                kinetic =    1.167421
    potential(screened) =   -1.696961
       potential(ionic) =   -4.291182

SPLIT: Orbitals with angular momentum L= 1

SPLIT: Basis orbitals for state 3p

SPLIT: PAO cut-off radius determined from an
SPLIT: energy shift=  0.010000 Ry
Split based on tail norm

   izeta = 1
                 lambda =    1.000000
                     rc =    6.843982
                 energy =   -0.289102
                kinetic =    0.857285
    potential(screened) =   -1.146387
       potential(ionic) =   -3.385088

   izeta = 2
                 rmatch =    4.952104
              splitnorm =    0.150000
                 energy =   -0.182759
                kinetic =    1.296336
    potential(screened) =   -1.479095
       potential(ionic) =   -3.923275
*Note: V_local used for l= 2

** Using vlocal for PAOs with L= 2

POLgen: Perturbative polarization orbital with L=  2

POLgen: Polarization orbital for state 3p
*Note: V_local used for lpol= 2

** Using vlocal for PAOs with L= 2
Split based on tail norm

   izeta = 1
                     rc =    6.843982
                 energy =    0.369369
                kinetic =    1.362956
    potential(screened) =   -0.993588
       potential(ionic) =   -3.078590
atom: Total number of Sankey-type orbitals: 13

atm_pop: Valence configuration (for local Pseudopot. screening):
 3s( 2.00)                                                            
 3p( 2.00)                                                            
 3d( 0.00)                                                            
Vna: chval, zval:    4.00000   4.00000

Vna:  Cut-off radius for the neutral-atom potential:   6.843982

atom: _________________________________________________________________________

prinput: Basis input 

PAO.BasisType split     

%block ChemicalSpeciesLabel
    1   14 Si                      # Species index, atomic number, species label
%endblock ChemicalSpeciesLabel

%block PAO.Basis                 # Define Basis set
# WARNING: This information might be incomplete!
Si                    2                    # Species label, number of l-shells
 n=3   0   2                         # n, l, Nzeta 
   5.403      3.854   
   1.000      1.000   
 n=3   1   2 P   1                   # n, l, Nzeta, Polarization, NzetaPol
   6.844      4.952   
   1.000      1.000   
%endblock PAO.Basis

prinput: ----------------------------------------------------------------------

Dumping basis to NetCDF file Si.ion.nc
coor:   Atomic-coordinates input format  =     Fractional

siesta: Atomic coordinates (Bohr) and species
siesta:      3.30702   3.30702   3.30702  1        1
siesta:      0.00000   0.00000   0.00000  1        2

siesta: System type = bulk      

initatomlists: Number of atoms, orbitals, and projectors:      2    26     8

siesta: ******************** Simulation parameters ****************************
siesta:
siesta: The following are some of the parameters of the simulation.
siesta: A complete list of the parameters used, including default values,
siesta: can be found in file out.fdf
siesta:
redata: Spin configuration                          = none
redata: Number of spin components                   = 1
redata: Time-Reversal Symmetry                      = T
redata: Spin spiral                                 = F
redata: Long output                                 =   F
redata: Number of Atomic Species                    =        1
redata: Charge density info will appear in .RHO file
redata: Write Mulliken Pop.                         = NO
redata: Matel table size (NRTAB)                    =     1024
redata: Mesh Cutoff                                 =   300.0000 Ry
redata: Net charge of the system                    =     0.0000 |e|
redata: Min. number of SCF Iter                     =        0
redata: Max. number of SCF Iter                     =      300
redata: SCF convergence failure will abort job
redata: SCF mix quantity                            = Hamiltonian
redata: Mix DM or H after convergence               =   F
redata: Recompute H after scf cycle                 =   F
redata: Mix DM in first SCF step                    =   T
redata: Write Pulay info on disk                    =   F
redata: New DM Occupancy tolerance                  = 0.000000000001
redata: No kicks to SCF
redata: DM Mixing Weight for Kicks                  =     0.5000
redata: Require Harris convergence for SCF          =   F
redata: Harris energy tolerance for SCF             =     0.000100 eV
redata: Require DM convergence for SCF              =   T
redata: DM tolerance for SCF                        =     0.000100
redata: Require EDM convergence for SCF             =   F
redata: EDM tolerance for SCF                       =     0.001000 eV
redata: Require H convergence for SCF               =   T
redata: Hamiltonian tolerance for SCF               =     0.001000 eV
redata: Require (free) Energy convergence for SCF   =   F
redata: (free) Energy tolerance for SCF             =     0.000100 eV
redata: Using DFT-D3 dispersion                     =   F
redata: Using Saved Data (generic)                  =   F
redata: Use continuation files for DM               =   T
redata: Neglect nonoverlap interactions             =   F
redata: Method of Calculation                       = Diagonalization
redata: Electronic Temperature                      =   299.9863 K
redata: Fix the spin of the system                  =   F
redata: Max. number of TDED Iter                    =        1
redata: Number of TDED substeps                     =        3
redata: Dynamics option                             = CG coord. optimization
redata: Variable cell                               =   T
redata: Use continuation files for CG               =   F
redata: Max atomic displ per move                   =     0.1058 Ang
redata: Maximum number of optimization moves        =       30
redata: Force tolerance                             =     0.0010 eV/Ang
redata: Stress tolerance                            =     1.0000 GPa
mix.SCF: Pulay mixing                            = Pulay
mix.SCF:    Variant                              = stable
mix.SCF:    History steps                        = 2
mix.SCF:    Linear mixing weight                 =     0.250000
mix.SCF:    Mixing weight                        =     0.250000
mix.SCF:    SVD condition                        = 0.1000E-07
redata: Save all siesta data in one NC              =   F
redata: ***********************************************************************

%block SCF.Mixers
  Pulay
%endblock SCF.Mixers

%block SCF.Mixer.Pulay
  # Mixing method
  method pulay
  variant stable

  # Mixing options
  weight 0.2500
  weight.linear 0.2500
  history 2
%endblock SCF.Mixer.Pulay

DM_history_depth set to one: no extrapolation allowed by default for geometry relaxation
Size of DM history Fstack: 1
Total number of electrons:     8.000000
Total ionic charge:     8.000000

* ProcessorY, Blocksize:    2  14


* Orbital distribution balance (max,min):    14    12

k-point displ. along   1 input, could be:     0.00    0.50
k-point displ. along   2 input, could be:     0.00    0.50
k-point displ. along   3 input, could be:     0.00    0.50
 Kpoints in:            8 . Kpoints trimmed:            8

siesta: k-grid: Number of k-points = 8
siesta: k-points from Monkhorst-Pack grid
siesta: k-cutoff (effective) =     4.950 Ang
siesta: k-point supercell and displacements
siesta: k-grid:     2     0     0      0.000
siesta: k-grid:     0     2     0      0.000
siesta: k-grid:     0     0     2      0.000

diag: Algorithm                                     = D&C
diag: Parallel over k                               =   F
diag: Use parallel 2D distribution                  =   F
diag: Parallel block-size                           = 14
diag: Parallel distribution                         =     1 x     2
diag: Used triangular part                          = Lower
diag: Absolute tolerance                            =  0.100E-15
diag: Orthogonalization factor                      =  0.100E-05
diag: Memory factor                                 =  1.0000

superc: Internal auxiliary supercell:     3 x     3 x     3  =      27
superc: Number of atoms, orbitals, and projectors:     54    702    216


ts: **************************************************************
ts: Save H and S matrices                           =    F
ts: Save DM and EDM matrices                        =    F
ts: Only save the overlap matrix S                  =    F
ts: **************************************************************

************************ Begin: TS CHECKS AND WARNINGS ************************
************************ End: TS CHECKS AND WARNINGS **************************


                     ====================================
                        Begin CG opt. move =      0
                     ====================================

superc: Internal auxiliary supercell:     3 x     3 x     3  =      27
superc: Number of atoms, orbitals, and projectors:     54    702    216

outcell: Unit cell vectors (Ang):
        0.000000    3.500000    3.500000
        3.500000    0.000000    3.500000
        3.500000    3.500000    0.000000

outcell: Cell vector modules (Ang)   :    4.949747    4.949747    4.949747
outcell: Cell angles (23,13,12) (deg):     60.0000     60.0000     60.0000
outcell: Cell volume (Ang**3)        :     85.7500
<dSpData1D:S at geom step 0
  <sparsity:sparsity for geom step 0
    nrows_g=26 nrows=14 sparsity=7.3817 nnzs=4990, refcount: 7>
  <dData1D:(new from dSpData1D) n=4990, refcount: 1>
refcount: 1>
new_DM -- step:     1
Initializing Density Matrix...

Attempting to read DM from file... Failed...
DM filled with atomic data:
<dSpData2D:DM initialized from atoms
  <sparsity:sparsity for geom step 0
    nrows_g=26 nrows=14 sparsity=7.3817 nnzs=4990, refcount: 8>
  <dData2D:DM n=4990 m=1, refcount: 1>
refcount: 1>
No. of atoms with KB's overlaping orbs in proc 0. Max # of overlaps:       8      61

InitMesh: MESH = 48 x 48 x 48 = 110592
InitMesh: Mesh cutoff (required, used) =   300.000   389.861 Ry
New grid distribution [1]: sub = 2
New grid distribution [2]: sub = 2
New grid distribution [3]: sub = 2
Setting up quadratic distribution...

stepf: Fermi-Dirac step function

siesta: Program's energy decomposition (eV):
siesta: Ebs     =       -62.876523
siesta: Eions   =       444.480597
siesta: Ena     =       181.138495
siesta: Ekin    =        69.548395
siesta: Enl     =        34.607678
siesta: Eso     =         0.000000
siesta: Edftu   =         0.000000
siesta: DEna    =         6.768114
siesta: DUscf   =         0.198491
siesta: DUext   =         0.000000
siesta: Ex      =       -50.446031
siesta: Ec      =        -6.942097
siesta: Exc     =       -57.388128
siesta: EbV     =         0.000000
siesta: eta*DQ  =         0.000000
siesta: Emadel  =         0.000000
siesta: Emeta   =         0.000000
siesta: Emolmec =         0.000000
siesta: Ekinion =         0.000000
siesta: Eharris =      -213.708572
siesta: Etot    =      -209.607552
siesta: FreeEng =      -209.625485

        iscf     Eharris(eV)        E_KS(eV)     FreeEng(eV)     dDmax    Ef(eV) dHmax(eV)
   scf:    1     -213.708572     -209.607552     -209.625485  0.624089 -4.500181  0.309578
timer: Routine,Calls,Time,% = IterSCF        1       0.329  18.20
   scf:    2     -209.612158     -209.609888     -209.627819  0.006041 -4.543117  0.214014
   scf:    3     -209.614051     -209.612133     -209.630060  0.013214 -4.636293  0.004529
   scf:    4     -209.612139     -209.612136     -209.630063  0.000184 -4.635610  0.003572
   scf:    5     -209.612142     -209.612139     -209.630066  0.000561 -4.633316  0.000632
   scf:    6     -209.612139     -209.612139     -209.630066  0.000004 -4.633153  0.000501

SCF Convergence by DM+H criterion
max |DM_out - DM_in|         :     0.0000044027
max |H_out - H_in|      (eV) :     0.0005007237
SCF cycle converged after 6 iterations

Using DM_out to compute the final energy and forces
No. of atoms with KB's overlaping orbs in proc 0. Max # of overlaps:       8      61

siesta: E_KS(eV) =             -209.6121

siesta: E_KS - E_eggbox =      -209.6121

siesta: Atomic forces (eV/Ang):
----------------------------------------
   Tot    0.000000    0.000000    0.000000
----------------------------------------
   Max    0.000053
   Res    0.000053    sqrt( Sum f_i^2 / 3N )
----------------------------------------
   Max    0.000053    constrained

Stress tensor Voigt[x,y,z,yz,xz,xy] (kbar):       75.62       75.62       75.62        0.00        0.00        0.00
(Free)E + p*V (eV/cell)     -213.6773
Target enthalpy (eV/cell)     -209.6301

siesta: Stress tensor (static) (eV/Ang**3):
         0.047198    0.000002    0.000002
         0.000002    0.047198    0.000002
         0.000002    0.000002    0.047198

siesta: Pressure (static):        -75.61906487  kBar

siesta: Stress tensor (total) (eV/Ang**3):
         0.047198    0.000002    0.000002
         0.000002    0.047198    0.000002
         0.000002    0.000002    0.047198

siesta: Pressure (total):        -75.61906487  kBar

cgvc: No target stress found, assuming hydrostatic MD.TargetPressure.

cgvc: Target stress (kBar)
cgvc:        -0.000       0.000       0.000
cgvc:         0.000      -0.000       0.000
cgvc:         0.000       0.000      -0.000

                     ====================================
                        Begin CG opt. move =      1
                     ====================================
k-point displ. along   1 input, could be:     0.00    0.50
k-point displ. along   2 input, could be:     0.00    0.50
k-point displ. along   3 input, could be:     0.00    0.50
 Kpoints in:            8 . Kpoints trimmed:            8

siesta: k-grid: Number of k-points = 8
siesta: k-points from Monkhorst-Pack grid
siesta: k-cutoff (effective) =     4.889 Ang
siesta: k-point supercell and displacements
siesta: k-grid:     2     0     0      0.000
siesta: k-grid:     0     2     0      0.000
siesta: k-grid:     0     0     2      0.000

superc: Internal auxiliary supercell:     3 x     3 x     3  =      27
superc: Number of atoms, orbitals, and projectors:     54    702    216

outcell: Unit cell vectors (Ang):
       -0.000004    3.457225    3.457225
        3.457225   -0.000004    3.457225
        3.457225    3.457225   -0.000004

outcell: Cell vector modules (Ang)   :    4.889255    4.889255    4.889255
outcell: Cell angles (23,13,12) (deg):     60.0001     60.0001     60.0001
outcell: Cell volume (Ang**3)        :     82.6445
<dSpData1D:S at geom step 1
  <sparsity:sparsity for geom step 1
    nrows_g=26 nrows=14 sparsity=7.4349 nnzs=5026, refcount: 7>
  <dData1D:(new from dSpData1D) n=5026, refcount: 1>
refcount: 1>
new_DM -- step:     2
Re-using DM from previous geometries...
Number of DMs in history: 1
 DM extrapolation coefficients: 
1   1.00000
New DM after history re-use:
<dSpData2D:SpM extrapolated using coords
  <sparsity:sparsity for geom step 1
    nrows_g=26 nrows=14 sparsity=7.4349 nnzs=5026, refcount: 9>
  <dData2D:(temp array for extrapolation) n=5026 m=1, refcount: 1>
refcount: 1>
Note: For starting DM, Qtot, Tr[D*S] =          8.00000000          8.06446023
No. of atoms with KB's overlaping orbs in proc 0. Max # of overlaps:       8      61

InitMesh: MESH = 48 x 48 x 48 = 110592
InitMesh: Mesh cutoff (required, used) =   300.000   399.567 Ry
New grid distribution [1]: sub = 2
New grid distribution [2]: sub = 2
New grid distribution [3]: sub = 2
Setting up quadratic distribution...

        iscf     Eharris(eV)        E_KS(eV)     FreeEng(eV)     dDmax    Ef(eV) dHmax(eV)
   scf:    1     -209.663168     -209.758424     -209.776347  0.013060 -4.609438  0.027328
   scf:    2     -209.758460     -209.758444     -209.776367  0.001511 -4.591146  0.004779
   scf:    3     -209.758446     -209.758445     -209.776368  0.000230 -4.593836  0.000071
   scf:    4     -209.758445     -209.758445     -209.776368  0.000006 -4.593826  0.000053

SCF Convergence by DM+H criterion
max |DM_out - DM_in|         :     0.0000058190
max |H_out - H_in|      (eV) :     0.0000531452
SCF cycle converged after 4 iterations

Using DM_out to compute the final energy and forces
No. of atoms with KB's overlaping orbs in proc 0. Max # of overlaps:       8      61

siesta: E_KS(eV) =             -209.7584

siesta: Atomic forces (eV/Ang):
----------------------------------------
   Tot   -0.000000   -0.000000   -0.000000
----------------------------------------
   Max    0.000108
   Res    0.000108    sqrt( Sum f_i^2 / 3N )
----------------------------------------
   Max    0.000108    constrained

Stress tensor Voigt[x,y,z,yz,xz,xy] (kbar):       75.31       75.31       75.31        0.01        0.01        0.01
(Free)E + p*V (eV/cell)     -213.6609
Target enthalpy (eV/cell)     -209.7764

siesta: Stress tensor (static) (eV/Ang**3):
         0.047003    0.000003    0.000003
         0.000003    0.047003    0.000003
         0.000003    0.000003    0.047003

siesta: Pressure (static):        -75.30685333  kBar

siesta: Stress tensor (total) (eV/Ang**3):
         0.047003    0.000003    0.000003
         0.000003    0.047003    0.000003
         0.000003    0.000003    0.047003

siesta: Pressure (total):        -75.30685333  kBar

                     ====================================
                        Begin CG opt. move =      2
                     ====================================
k-point displ. along   1 input, could be:     0.00    0.50
k-point displ. along   2 input, could be:     0.00    0.50
k-point displ. along   3 input, could be:     0.00    0.50
 Kpoints in:            8 . Kpoints trimmed:            8

siesta: k-grid: Number of k-points = 8
siesta: k-points from Monkhorst-Pack grid
siesta: k-cutoff (effective) =     4.792 Ang
siesta: k-point supercell and displacements
siesta: k-grid:     2     0     0      0.000
siesta: k-grid:     0     2     0      0.000
siesta: k-grid:     0     0     2      0.000

superc: Internal auxiliary supercell:     3 x     3 x     3  =      27
superc: Number of atoms, orbitals, and projectors:     54    702    216

outcell: Unit cell vectors (Ang):
       -0.000010    3.388786    3.388786
        3.388786   -0.000010    3.388786
        3.388786    3.388786   -0.000010

outcell: Cell vector modules (Ang)   :    4.792467    4.792467    4.792467
outcell: Cell angles (23,13,12) (deg):     60.0002     60.0002     60.0002
outcell: Cell volume (Ang**3)        :     77.8331
<dSpData1D:S at geom step 2
  <sparsity:sparsity for geom step 2
    nrows_g=26 nrows=14 sparsity=7.7544 nnzs=5242, refcount: 7>
  <dData1D:(new from dSpData1D) n=5242, refcount: 1>
refcount: 1>
new_DM -- step:     3
Re-using DM from previous geometries...
Number of DMs in history: 1
 DM extrapolation coefficients: 
1   1.00000
New DM after history re-use:
<dSpData2D:SpM extrapolated using coords
  <sparsity:sparsity for geom step 2
    nrows_g=26 nrows=14 sparsity=7.7544 nnzs=5242, refcount: 9>
  <dData2D:(temp array for extrapolation) n=5242 m=1, refcount: 1>
refcount: 1>
Note: For starting DM, Qtot, Tr[D*S] =          8.00000000          8.10270871
No. of atoms with KB's overlaping orbs in proc 0. Max # of overlaps:       8      61

InitMesh: MESH = 48 x 48 x 48 = 110592
InitMesh: Mesh cutoff (required, used) =   300.000   415.868 Ry
New grid distribution [1]: sub = 2
New grid distribution [2]: sub = 2
New grid distribution [3]: sub = 2
Setting up quadratic distribution...

        iscf     Eharris(eV)        E_KS(eV)     FreeEng(eV)     dDmax    Ef(eV) dHmax(eV)
   scf:    1     -209.802473     -209.982461     -210.000441  0.021120 -4.539890  0.045054
   scf:    2     -209.982575     -209.982524     -210.000495  0.002363 -4.509353  0.007637
   scf:    3     -209.982526     -209.982525     -210.000497  0.000351 -4.513738  0.000121
   scf:    4     -209.982525     -209.982525     -210.000497  0.000014 -4.513722  0.000090

SCF Convergence by DM+H criterion
max |DM_out - DM_in|         :     0.0000139726
max |H_out - H_in|      (eV) :     0.0000903322
SCF cycle converged after 4 iterations

Using DM_out to compute the final energy and forces
No. of atoms with KB's overlaping orbs in proc 0. Max # of overlaps:       8      61

siesta: E_KS(eV) =             -209.9825

siesta: Atomic forces (eV/Ang):
----------------------------------------
   Tot    0.000000   -0.000000    0.000000
----------------------------------------
   Max    0.000215
   Res    0.000215    sqrt( Sum f_i^2 / 3N )
----------------------------------------
   Max    0.000215    constrained

Stress tensor Voigt[x,y,z,yz,xz,xy] (kbar):       73.62       73.62       73.62        0.01        0.01        0.01
(Free)E + p*V (eV/cell)     -213.5770
Target enthalpy (eV/cell)     -210.0005

siesta: Stress tensor (static) (eV/Ang**3):
         0.045950    0.000006    0.000006
         0.000006    0.045950    0.000006
         0.000006    0.000006    0.045950

siesta: Pressure (static):        -73.62067592  kBar

siesta: Stress tensor (total) (eV/Ang**3):
         0.045950    0.000006    0.000006
         0.000006    0.045950    0.000006
         0.000006    0.000006    0.045950

siesta: Pressure (total):        -73.62067592  kBar

                     ====================================
                        Begin CG opt. move =      3
                     ====================================
k-point displ. along   1 input, could be:     0.00    0.50
k-point displ. along   2 input, could be:     0.00    0.50
k-point displ. along   3 input, could be:     0.00    0.50
 Kpoints in:            8 . Kpoints trimmed:            8

siesta: k-grid: Number of k-points = 8
siesta: k-points from Monkhorst-Pack grid
siesta: k-cutoff (effective) =     4.688 Ang
siesta: k-point supercell and displacements
siesta: k-grid:     2     0     0      0.000
siesta: k-grid:     0     2     0      0.000
siesta: k-grid:     0     0     2      0.000

superc: Internal auxiliary supercell:     5 x     5 x     5  =     125
superc: Number of atoms, orbitals, and projectors:    250   3250   1000

outcell: Unit cell vectors (Ang):
       -0.000016    3.314698    3.314698
        3.314698   -0.000016    3.314698
        3.314698    3.314698   -0.000016

outcell: Cell vector modules (Ang)   :    4.687690    4.687690    4.687690
outcell: Cell angles (23,13,12) (deg):     60.0003     60.0003     60.0003
outcell: Cell volume (Ang**3)        :     72.8392
<dSpData1D:S at geom step 3
  <sparsity:sparsity for geom step 3
    nrows_g=26 nrows=14 sparsity=9.0148 nnzs=6094, refcount: 7>
  <dData1D:(new from dSpData1D) n=6094, refcount: 1>
refcount: 1>
new_DM -- step:     4
Re-using DM from previous geometries...
Number of DMs in history: 1
 DM extrapolation coefficients: 
1   1.00000
New DM after history re-use:
<dSpData2D:SpM extrapolated using coords
  <sparsity:sparsity for geom step 3
    nrows_g=26 nrows=14 sparsity=9.0148 nnzs=6094, refcount: 9>
  <dData2D:(temp array for extrapolation) n=6094 m=1, refcount: 1>
refcount: 1>
Note: For starting DM, Qtot, Tr[D*S] =          8.00000000          8.10994841
No. of atoms with KB's overlaping orbs in proc 0. Max # of overlaps:       8      65

InitMesh: MESH = 40 x 40 x 40 = 64000
InitMesh: Mesh cutoff (required, used) =   300.000   301.850 Ry
New grid distribution [1]: sub = 2
New grid distribution [2]: sub = 2
New grid distribution [3]: sub = 2
Setting up quadratic distribution...

        iscf     Eharris(eV)        E_KS(eV)     FreeEng(eV)     dDmax    Ef(eV) dHmax(eV)
   scf:    1     -209.963630     -210.204183     -210.223965  0.118616 -4.433257  0.054444
   scf:    2     -210.204829     -210.204515     -210.224046  0.003153 -4.395045  0.009444
   scf:    3     -210.204450     -210.204483     -210.224049  0.000452 -4.400663  0.000158
   scf:    4     -210.204483     -210.204483     -210.224049  0.000020 -4.400640  0.000119

SCF Convergence by DM+H criterion
max |DM_out - DM_in|         :     0.0000198967
max |H_out - H_in|      (eV) :     0.0001191772
SCF cycle converged after 4 iterations

Using DM_out to compute the final energy and forces
No. of atoms with KB's overlaping orbs in proc 0. Max # of overlaps:       8      65

siesta: E_KS(eV) =             -210.2045

siesta: Atomic forces (eV/Ang):
----------------------------------------
   Tot    0.000000   -0.000000    0.000000
----------------------------------------
   Max    0.000496
   Res    0.000496    sqrt( Sum f_i^2 / 3N )
----------------------------------------
   Max    0.000496    constrained

Stress tensor Voigt[x,y,z,yz,xz,xy] (kbar):       69.87       69.87       69.87        0.02        0.02        0.02
(Free)E + p*V (eV/cell)     -213.4005
Target enthalpy (eV/cell)     -210.2240

siesta: Stress tensor (static) (eV/Ang**3):
         0.043609    0.000013    0.000013
         0.000013    0.043609    0.000013
         0.000013    0.000013    0.043609

siesta: Pressure (static):        -69.86988619  kBar

siesta: Stress tensor (total) (eV/Ang**3):
         0.043609    0.000013    0.000013
         0.000013    0.043609    0.000013
         0.000013    0.000013    0.043609

siesta: Pressure (total):        -69.86988619  kBar

                     ====================================
                        Begin CG opt. move =      4
                     ====================================
k-point displ. along   1 input, could be:     0.00    0.50
k-point displ. along   2 input, could be:     0.00    0.50
k-point displ. along   3 input, could be:     0.00    0.50
 Kpoints in:            8 . Kpoints trimmed:            8

siesta: k-grid: Number of k-points = 8
siesta: k-points from Monkhorst-Pack grid
siesta: k-cutoff (effective) =     4.583 Ang
siesta: k-point supercell and displacements
siesta: k-grid:     2     0     0      0.000
siesta: k-grid:     0     2     0      0.000
siesta: k-grid:     0     0     2      0.000

superc: Internal auxiliary supercell:     5 x     5 x     5  =     125
superc: Number of atoms, orbitals, and projectors:    250   3250   1000

outcell: Unit cell vectors (Ang):
       -0.000023    3.240610    3.240610
        3.240610   -0.000023    3.240610
        3.240610    3.240610   -0.000023

outcell: Cell vector modules (Ang)   :    4.582914    4.582914    4.582914
outcell: Cell angles (23,13,12) (deg):     60.0005     60.0005     60.0005
outcell: Cell volume (Ang**3)        :     68.0636
<dSpData1D:S at geom step 4
  <sparsity:sparsity for geom step 4
    nrows_g=26 nrows=14 sparsity=9.1746 nnzs=6202, refcount: 7>
  <dData1D:(new from dSpData1D) n=6202, refcount: 1>
refcount: 1>
new_DM -- step:     5
Re-using DM from previous geometries...
Number of DMs in history: 1
 DM extrapolation coefficients: 
1   1.00000
New DM after history re-use:
<dSpData2D:SpM extrapolated using coords
  <sparsity:sparsity for geom step 4
    nrows_g=26 nrows=14 sparsity=9.1746 nnzs=6202, refcount: 9>
  <dData2D:(temp array for extrapolation) n=6202 m=1, refcount: 1>
refcount: 1>
Note: For starting DM, Qtot, Tr[D*S] =          8.00000000          8.10799254
No. of atoms with KB's overlaping orbs in proc 0. Max # of overlaps:       8      65

InitMesh: MESH = 40 x 40 x 40 = 64000
InitMesh: Mesh cutoff (required, used) =   300.000   315.809 Ry
New grid distribution [1]: sub = 2
New grid distribution [2]: sub = 2
New grid distribution [3]: sub = 2
Setting up quadratic distribution...

        iscf     Eharris(eV)        E_KS(eV)     FreeEng(eV)     dDmax    Ef(eV) dHmax(eV)
   scf:    1     -210.121283     -210.409269     -210.434700  0.113303 -4.332237  0.151751
   scf:    2     -210.408429     -210.408955     -210.435295  0.021781 -4.210474  0.031869
   scf:    3     -210.409341     -210.409156     -210.435344  0.003940 -4.231244  0.001160
   scf:    4     -210.409182     -210.409169     -210.435345  0.000152 -4.230750  0.000780
   scf:    5     -210.409196     -210.409183     -210.435345  0.000119 -4.230551  0.000701
   scf:    6     -210.409209     -210.409196     -210.435345  0.000107 -4.230316  0.000582
   scf:    7     -210.409215     -210.409205     -210.435346  0.000077 -4.230072  0.000421

SCF Convergence by DM+H criterion
max |DM_out - DM_in|         :     0.0000774095
max |H_out - H_in|      (eV) :     0.0004210369
SCF cycle converged after 7 iterations

Using DM_out to compute the final energy and forces
No. of atoms with KB's overlaping orbs in proc 0. Max # of overlaps:       8      65

siesta: E_KS(eV) =             -210.4092

siesta: Atomic forces (eV/Ang):
----------------------------------------
   Tot   -0.000000   -0.000000   -0.000000
----------------------------------------
   Max    0.001471
   Res    0.001471    sqrt( Sum f_i^2 / 3N )
----------------------------------------
   Max    0.001471    constrained

Stress tensor Voigt[x,y,z,yz,xz,xy] (kbar):       75.76       75.76       75.76        0.02        0.02        0.02
(Free)E + p*V (eV/cell)     -213.6538
Target enthalpy (eV/cell)     -210.4353

siesta: Stress tensor (static) (eV/Ang**3):
         0.047286    0.000010    0.000010
         0.000010    0.047286    0.000010
         0.000010    0.000010    0.047286

siesta: Pressure (static):        -75.76096125  kBar

siesta: Stress tensor (total) (eV/Ang**3):
         0.047286    0.000010    0.000010
         0.000010    0.047286    0.000010
         0.000010    0.000010    0.047286

siesta: Pressure (total):        -75.76096125  kBar

                     ====================================
                        Begin CG opt. move =      5
                     ====================================
k-point displ. along   1 input, could be:     0.00    0.50
k-point displ. along   2 input, could be:     0.00    0.50
k-point displ. along   3 input, could be:     0.00    0.50
 Kpoints in:            8 . Kpoints trimmed:            8

siesta: k-grid: Number of k-points = 8
siesta: k-points from Monkhorst-Pack grid
siesta: k-cutoff (effective) =     4.478 Ang
siesta: k-point supercell and displacements
siesta: k-grid:     2     0     0      0.000
siesta: k-grid:     0     2     0      0.000
siesta: k-grid:     0     0     2      0.000

superc: Internal auxiliary supercell:     5 x     5 x     5  =     125
superc: Number of atoms, orbitals, and projectors:    250   3250   1000

outcell: Unit cell vectors (Ang):
       -0.000029    3.166522    3.166522
        3.166522   -0.000029    3.166522
        3.166522    3.166522   -0.000029

outcell: Cell vector modules (Ang)   :    4.478138    4.478138    4.478138
outcell: Cell angles (23,13,12) (deg):     60.0006     60.0006     60.0006
outcell: Cell volume (Ang**3)        :     63.5014
<dSpData1D:S at geom step 5
  <sparsity:sparsity for geom step 5
    nrows_g=26 nrows=14 sparsity=9.3876 nnzs=6346, refcount: 7>
  <dData1D:(new from dSpData1D) n=6346, refcount: 1>
refcount: 1>
new_DM -- step:     6
Re-using DM from previous geometries...
Number of DMs in history: 1
 DM extrapolation coefficients: 
1   1.00000
New DM after history re-use:
<dSpData2D:SpM extrapolated using coords
  <sparsity:sparsity for geom step 5
    nrows_g=26 nrows=14 sparsity=9.3876 nnzs=6346, refcount: 9>
  <dData2D:(temp array for extrapolation) n=6346 m=1, refcount: 1>
refcount: 1>
Note: For starting DM, Qtot, Tr[D*S] =          8.00000000          8.10651152
No. of atoms with KB's overlaping orbs in proc 0. Max # of overlaps:       8      65

InitMesh: MESH = 40 x 40 x 40 = 64000
InitMesh: Mesh cutoff (required, used) =   300.000   330.759 Ry
New grid distribution [1]: sub = 2
New grid distribution [2]: sub = 2
New grid distribution [3]: sub = 2
Setting up quadratic distribution...

        iscf     Eharris(eV)        E_KS(eV)     FreeEng(eV)     dDmax    Ef(eV) dHmax(eV)
   scf:    1     -210.343250     -210.650330     -210.662968  0.094263 -4.223388  0.107008
   scf:    2     -210.650554     -210.650470     -210.663251  0.006603 -4.131522  0.015201
   scf:    3     -210.650529     -210.650500     -210.663259  0.000693 -4.142527  0.000768
   scf:    4     -210.650503     -210.650501     -210.663259  0.000086 -4.142436  0.000571

SCF Convergence by DM+H criterion
max |DM_out - DM_in|         :     0.0000862940
max |H_out - H_in|      (eV) :     0.0005705893
SCF cycle converged after 4 iterations

Using DM_out to compute the final energy and forces
No. of atoms with KB's overlaping orbs in proc 0. Max # of overlaps:       8      65

siesta: E_KS(eV) =             -210.6505

siesta: Atomic forces (eV/Ang):
----------------------------------------
   Tot   -0.000000    0.000000   -0.000000
----------------------------------------
   Max    0.001456
   Res    0.001456    sqrt( Sum f_i^2 / 3N )
----------------------------------------
   Max    0.001456    constrained

Stress tensor Voigt[x,y,z,yz,xz,xy] (kbar):       79.56       79.56       79.56       -0.00       -0.00       -0.00
(Free)E + p*V (eV/cell)     -213.8164
Target enthalpy (eV/cell)     -210.6633

siesta: Stress tensor (static) (eV/Ang**3):
         0.049655   -0.000002   -0.000002
        -0.000002    0.049655   -0.000002
        -0.000002   -0.000002    0.049655

siesta: Pressure (static):        -79.55667119  kBar

siesta: Stress tensor (total) (eV/Ang**3):
         0.049655   -0.000002   -0.000002
        -0.000002    0.049655   -0.000002
        -0.000002   -0.000002    0.049655

siesta: Pressure (total):        -79.55667119  kBar

                     ====================================
                        Begin CG opt. move =      6
                     ====================================
k-point displ. along   1 input, could be:     0.00    0.50
k-point displ. along   2 input, could be:     0.00    0.50
k-point displ. along   3 input, could be:     0.00    0.50
 Kpoints in:            8 . Kpoints trimmed:            8

siesta: k-grid: Number of k-points = 8
siesta: k-points from Monkhorst-Pack grid
siesta: k-cutoff (effective) =     4.373 Ang
siesta: k-point supercell and displacements
siesta: k-grid:     2     0     0      0.000
siesta: k-grid:     0     2     0      0.000
siesta: k-grid:     0     0     2      0.000

superc: Internal auxiliary supercell:     5 x     5 x     5  =     125
superc: Number of atoms, orbitals, and projectors:    250   3250   1000

outcell: Unit cell vectors (Ang):
       -0.000036    3.092434    3.092434
        3.092434   -0.000036    3.092434
        3.092434    3.092434   -0.000036

outcell: Cell vector modules (Ang)   :    4.373361    4.373361    4.373361
outcell: Cell angles (23,13,12) (deg):     60.0008     60.0008     60.0008
outcell: Cell volume (Ang**3)        :     59.1478
<dSpData1D:S at geom step 6
  <sparsity:sparsity for geom step 6
    nrows_g=26 nrows=14 sparsity=14.9438 nnzs=10102, refcount: 7>
  <dData1D:(new from dSpData1D) n=10102, refcount: 1>
refcount: 1>
new_DM -- step:     7
Re-using DM from previous geometries...
Number of DMs in history: 1
 DM extrapolation coefficients: 
1   1.00000
New DM after history re-use:
<dSpData2D:SpM extrapolated using coords
  <sparsity:sparsity for geom step 6
    nrows_g=26 nrows=14 sparsity=14.9438 nnzs=10102, refcount: 9>
  <dData2D:(temp array for extrapolation) n=10102 m=1, refcount: 1>
refcount: 1>
Note: For starting DM, Qtot, Tr[D*S] =          8.00000000          8.10754578
No. of atoms with KB's overlaping orbs in proc 0. Max # of overlaps:      17     161

InitMesh: MESH = 40 x 40 x 40 = 64000
InitMesh: Mesh cutoff (required, used) =   300.000   346.796 Ry
New grid distribution [1]: sub = 2
New grid distribution [2]: sub = 2
New grid distribution [3]: sub = 2
Setting up quadratic distribution...

        iscf     Eharris(eV)        E_KS(eV)     FreeEng(eV)     dDmax    Ef(eV) dHmax(eV)
   scf:    1     -210.462181     -210.851679     -210.864020  0.246902 -4.164920  0.030993
   scf:    2     -210.851726     -210.851706     -210.864047  0.001576 -4.138108  0.004797
   scf:    3     -210.851709     -210.851708     -210.864049  0.000207 -4.141674  0.000121
   scf:    4     -210.851708     -210.851708     -210.864049  0.000009 -4.141606  0.000061

SCF Convergence by DM+H criterion
max |DM_out - DM_in|         :     0.0000086102
max |H_out - H_in|      (eV) :     0.0000607388
SCF cycle converged after 4 iterations

Using DM_out to compute the final energy and forces
No. of atoms with KB's overlaping orbs in proc 0. Max # of overlaps:      17     161

siesta: E_KS(eV) =             -210.8517

siesta: Atomic forces (eV/Ang):
----------------------------------------
   Tot   -0.000000    0.000000    0.000000
----------------------------------------
   Max    0.001908
   Res    0.001908    sqrt( Sum f_i^2 / 3N )
----------------------------------------
   Max    0.001908    constrained

Stress tensor Voigt[x,y,z,yz,xz,xy] (kbar):       66.51       66.51       66.51       -0.00       -0.00       -0.00
(Free)E + p*V (eV/cell)     -213.3196
Target enthalpy (eV/cell)     -210.8640

siesta: Stress tensor (static) (eV/Ang**3):
         0.041515   -0.000001   -0.000001
        -0.000001    0.041515   -0.000001
        -0.000001   -0.000001    0.041515

siesta: Pressure (static):        -66.51403495  kBar

siesta: Stress tensor (total) (eV/Ang**3):
         0.041515   -0.000001   -0.000001
        -0.000001    0.041515   -0.000001
        -0.000001   -0.000001    0.041515

siesta: Pressure (total):        -66.51403495  kBar

                     ====================================
                        Begin CG opt. move =      7
                     ====================================
k-point displ. along   1 input, could be:     0.00    0.50
k-point displ. along   2 input, could be:     0.00    0.50
k-point displ. along   3 input, could be:     0.00    0.50
 Kpoints in:            8 . Kpoints trimmed:            8

siesta: k-grid: Number of k-points = 8
siesta: k-points from Monkhorst-Pack grid
siesta: k-cutoff (effective) =     4.269 Ang
siesta: k-point supercell and displacements
siesta: k-grid:     2     0     0      0.000
siesta: k-grid:     0     2     0      0.000
siesta: k-grid:     0     0     2      0.000

superc: Internal auxiliary supercell:     5 x     5 x     5  =     125
superc: Number of atoms, orbitals, and projectors:    250   3250   1000

outcell: Unit cell vectors (Ang):
       -0.000042    3.018346    3.018346
        3.018346   -0.000042    3.018346
        3.018346    3.018346   -0.000042

outcell: Cell vector modules (Ang)   :    4.268585    4.268585    4.268585
outcell: Cell angles (23,13,12) (deg):     60.0009     60.0009     60.0009
outcell: Cell volume (Ang**3)        :     54.9979
<dSpData1D:S at geom step 7
  <sparsity:sparsity for geom step 7
    nrows_g=26 nrows=14 sparsity=14.9438 nnzs=10102, refcount: 7>
  <dData1D:(new from dSpData1D) n=10102, refcount: 1>
refcount: 1>
new_DM -- step:     8
Re-using DM from previous geometries...
Number of DMs in history: 1
 DM extrapolation coefficients: 
1   1.00000
New DM after history re-use:
<dSpData2D:SpM extrapolated using coords
  <sparsity:sparsity for geom step 7
    nrows_g=26 nrows=14 sparsity=14.9438 nnzs=10102, refcount: 9>
  <dData2D:(temp array for extrapolation) n=10102 m=1, refcount: 1>
refcount: 1>
Note: For starting DM, Qtot, Tr[D*S] =          8.00000000          8.10849259
No. of atoms with KB's overlaping orbs in proc 0. Max # of overlaps:      17     161

InitMesh: MESH = 40 x 40 x 40 = 64000
InitMesh: Mesh cutoff (required, used) =   300.000   364.028 Ry
New grid distribution [1]: sub = 2
New grid distribution [2]: sub = 2
New grid distribution [3]: sub = 2
Setting up quadratic distribution...

        iscf     Eharris(eV)        E_KS(eV)     FreeEng(eV)     dDmax    Ef(eV) dHmax(eV)
   scf:    1     -210.651831     -211.052520     -211.053679  0.352894 -4.048984  0.015119
   scf:    2     -211.052010     -211.052271     -211.053753  0.003665 -4.060433  0.006679
   scf:    3     -211.052438     -211.052355     -211.053752  0.000950 -4.056755  0.003938
   scf:    4     -211.052349     -211.052352     -211.053752  0.000075 -4.056032  0.003136
   scf:    5     -211.052312     -211.052332     -211.053753  0.000222 -4.054835  0.001375
   scf:    6     -211.052303     -211.052317     -211.053754  0.000161 -4.054813  0.001053
   scf:    7     -211.052279     -211.052298     -211.053754  0.000212 -4.054930  0.000460
   scf:    8     -211.052291     -211.052295     -211.053754  0.000040 -4.055030  0.000257

SCF Convergence by DM+H criterion
max |DM_out - DM_in|         :     0.0000400804
max |H_out - H_in|      (eV) :     0.0002572092
SCF cycle converged after 8 iterations

Using DM_out to compute the final energy and forces
No. of atoms with KB's overlaping orbs in proc 0. Max # of overlaps:      17     161

siesta: E_KS(eV) =             -211.0523

siesta: Atomic forces (eV/Ang):
----------------------------------------
   Tot   -0.000000   -0.000000   -0.000000
----------------------------------------
   Max    0.001241
   Res    0.001241    sqrt( Sum f_i^2 / 3N )
----------------------------------------
   Max    0.001241    constrained

Stress tensor Voigt[x,y,z,yz,xz,xy] (kbar):      103.07      103.07      103.07        0.01        0.01        0.01
(Free)E + p*V (eV/cell)     -214.5920
Target enthalpy (eV/cell)     -211.0538

siesta: Stress tensor (static) (eV/Ang**3):
         0.064334    0.000004    0.000004
         0.000004    0.064334    0.000004
         0.000004    0.000004    0.064334

siesta: Pressure (static):       -103.07461860  kBar

siesta: Stress tensor (total) (eV/Ang**3):
         0.064334    0.000004    0.000004
         0.000004    0.064334    0.000004
         0.000004    0.000004    0.064334

siesta: Pressure (total):       -103.07461860  kBar

                     ====================================
                        Begin CG opt. move =      8
                     ====================================
k-point displ. along   1 input, could be:     0.00    0.50
k-point displ. along   2 input, could be:     0.00    0.50
k-point displ. along   3 input, could be:     0.00    0.50
 Kpoints in:            8 . Kpoints trimmed:            8

siesta: k-grid: Number of k-points = 8
siesta: k-points from Monkhorst-Pack grid
siesta: k-cutoff (effective) =     4.164 Ang
siesta: k-point supercell and displacements
siesta: k-grid:     2     0     0      0.000
siesta: k-grid:     0     2     0      0.000
siesta: k-grid:     0     0     2      0.000

superc: Internal auxiliary supercell:     5 x     5 x     5  =     125
superc: Number of atoms, orbitals, and projectors:    250   3250   1000

outcell: Unit cell vectors (Ang):
       -0.000049    2.944257    2.944257
        2.944257   -0.000049    2.944257
        2.944257    2.944257   -0.000049

outcell: Cell vector modules (Ang)   :    4.163809    4.163809    4.163809
outcell: Cell angles (23,13,12) (deg):     60.0011     60.0011     60.0011
outcell: Cell volume (Ang**3)        :     51.0468
<dSpData1D:S at geom step 8
  <sparsity:sparsity for geom step 8
    nrows_g=26 nrows=14 sparsity=14.9970 nnzs=10138, refcount: 7>
  <dData1D:(new from dSpData1D) n=10138, refcount: 1>
refcount: 1>
new_DM -- step:     9
Re-using DM from previous geometries...
Number of DMs in history: 1
 DM extrapolation coefficients: 
1   1.00000
New DM after history re-use:
<dSpData2D:SpM extrapolated using coords
  <sparsity:sparsity for geom step 8
    nrows_g=26 nrows=14 sparsity=14.9970 nnzs=10138, refcount: 9>
  <dData2D:(temp array for extrapolation) n=10138 m=1, refcount: 1>
refcount: 1>
Note: For starting DM, Qtot, Tr[D*S] =          8.00000000          8.13837128
No. of atoms with KB's overlaping orbs in proc 0. Max # of overlaps:      17     161

InitMesh: MESH = 36 x 36 x 36 = 46656
InitMesh: Mesh cutoff (required, used) =   300.000   309.888 Ry
New grid distribution [1]: sub = 2
New grid distribution [2]: sub = 2
New grid distribution [3]: sub = 2
Setting up quadratic distribution...

        iscf     Eharris(eV)        E_KS(eV)     FreeEng(eV)     dDmax    Ef(eV) dHmax(eV)
   scf:    1     -210.894795     -211.277488     -211.277488  0.063346 -3.791264  0.017235
   scf:    2     -211.277499     -211.277494     -211.277494  0.001297 -3.775833  0.001958
   scf:    3     -211.277494     -211.277494     -211.277494  0.000123 -3.777218  0.000156
   scf:    4     -211.277494     -211.277494     -211.277494  0.000007 -3.777208  0.000112

SCF Convergence by DM+H criterion
max |DM_out - DM_in|         :     0.0000068116
max |H_out - H_in|      (eV) :     0.0001118980
SCF cycle converged after 4 iterations

Using DM_out to compute the final energy and forces
No. of atoms with KB's overlaping orbs in proc 0. Max # of overlaps:      17     161

siesta: E_KS(eV) =             -211.2775

siesta: Atomic forces (eV/Ang):
----------------------------------------
   Tot   -0.000000   -0.000000    0.000000
----------------------------------------
   Max    0.002028
   Res    0.002028    sqrt( Sum f_i^2 / 3N )
----------------------------------------
   Max    0.002028    constrained

Stress tensor Voigt[x,y,z,yz,xz,xy] (kbar):       74.87       74.87       74.87        0.02        0.02        0.02
(Free)E + p*V (eV/cell)     -213.6628
Target enthalpy (eV/cell)     -211.2775

siesta: Stress tensor (static) (eV/Ang**3):
         0.046727    0.000010    0.000010
         0.000010    0.046727    0.000010
         0.000010    0.000010    0.046727

siesta: Pressure (static):        -74.86524439  kBar

siesta: Stress tensor (total) (eV/Ang**3):
         0.046727    0.000010    0.000010
         0.000010    0.046727    0.000010
         0.000010    0.000010    0.046727

siesta: Pressure (total):        -74.86524439  kBar

                     ====================================
                        Begin CG opt. move =      9
                     ====================================
k-point displ. along   1 input, could be:     0.00    0.50
k-point displ. along   2 input, could be:     0.00    0.50
k-point displ. along   3 input, could be:     0.00    0.50
 Kpoints in:            8 . Kpoints trimmed:            8

siesta: k-grid: Number of k-points = 8
siesta: k-points from Monkhorst-Pack grid
siesta: k-cutoff (effective) =     4.059 Ang
siesta: k-point supercell and displacements
siesta: k-grid:     2     0     0      0.000
siesta: k-grid:     0     2     0      0.000
siesta: k-grid:     0     0     2      0.000

superc: Internal auxiliary supercell:     5 x     5 x     5  =     125
superc: Number of atoms, orbitals, and projectors:    250   3250   1000

outcell: Unit cell vectors (Ang):
       -0.000055    2.870169    2.870169
        2.870169   -0.000055    2.870169
        2.870169    2.870169   -0.000055

outcell: Cell vector modules (Ang)   :    4.059033    4.059033    4.059033
outcell: Cell angles (23,13,12) (deg):     60.0013     60.0013     60.0013
outcell: Cell volume (Ang**3)        :     47.2895
<dSpData1D:S at geom step 9
  <sparsity:sparsity for geom step 9
    nrows_g=26 nrows=14 sparsity=14.9970 nnzs=10138, refcount: 7>
  <dData1D:(new from dSpData1D) n=10138, refcount: 1>
refcount: 1>
new_DM -- step:    10
Re-using DM from previous geometries...
Number of DMs in history: 1
 DM extrapolation coefficients: 
1   1.00000
New DM after history re-use:
<dSpData2D:SpM extrapolated using coords
  <sparsity:sparsity for geom step 9
    nrows_g=26 nrows=14 sparsity=14.9970 nnzs=10138, refcount: 9>
  <dData2D:(temp array for extrapolation) n=10138 m=1, refcount: 1>
refcount: 1>
Note: For starting DM, Qtot, Tr[D*S] =          8.00000000          8.13396463
No. of atoms with KB's overlaping orbs in proc 0. Max # of overlaps:      17     161

InitMesh: MESH = 36 x 36 x 36 = 46656
InitMesh: Mesh cutoff (required, used) =   300.000   326.091 Ry
New grid distribution [1]: sub = 2
New grid distribution [2]: sub = 2
New grid distribution [3]: sub = 2
Setting up quadratic distribution...

        iscf     Eharris(eV)        E_KS(eV)     FreeEng(eV)     dDmax    Ef(eV) dHmax(eV)
   scf:    1     -210.939453     -211.405849     -211.405849  0.054916 -3.691127  0.018693
   scf:    2     -211.405864     -211.405857     -211.405857  0.001982 -3.675737  0.002275
   scf:    3     -211.405858     -211.405858     -211.405858  0.000200 -3.677244  0.000161
   scf:    4     -211.405858     -211.405858     -211.405858  0.000007 -3.677212  0.000121

SCF Convergence by DM+H criterion
max |DM_out - DM_in|         :     0.0000065973
max |H_out - H_in|      (eV) :     0.0001211507
SCF cycle converged after 4 iterations

Using DM_out to compute the final energy and forces
No. of atoms with KB's overlaping orbs in proc 0. Max # of overlaps:      17     161

siesta: E_KS(eV) =             -211.4059

siesta: Atomic forces (eV/Ang):
----------------------------------------
   Tot    0.000000   -0.000000    0.000000
----------------------------------------
   Max    0.002510
   Res    0.002510    sqrt( Sum f_i^2 / 3N )
----------------------------------------
   Max    0.002510    constrained

Stress tensor Voigt[x,y,z,yz,xz,xy] (kbar):       31.48       31.48       31.48        0.03        0.03        0.03
(Free)E + p*V (eV/cell)     -212.3351
Target enthalpy (eV/cell)     -211.4059

siesta: Stress tensor (static) (eV/Ang**3):
         0.019650    0.000018    0.000018
         0.000018    0.019650    0.000018
         0.000018    0.000018    0.019650

siesta: Pressure (static):        -31.48327161  kBar

siesta: Stress tensor (total) (eV/Ang**3):
         0.019650    0.000018    0.000018
         0.000018    0.019650    0.000018
         0.000018    0.000018    0.019650

siesta: Pressure (total):        -31.48327161  kBar

                     ====================================
                        Begin CG opt. move =     10
                     ====================================
k-point displ. along   1 input, could be:     0.00    0.50
k-point displ. along   2 input, could be:     0.00    0.50
k-point displ. along   3 input, could be:     0.00    0.50
 Kpoints in:            8 . Kpoints trimmed:            8

siesta: k-grid: Number of k-points = 8
siesta: k-points from Monkhorst-Pack grid
siesta: k-cutoff (effective) =     3.954 Ang
siesta: k-point supercell and displacements
siesta: k-grid:     2     0     0      0.000
siesta: k-grid:     0     2     0      0.000
siesta: k-grid:     0     0     2      0.000

superc: Internal auxiliary supercell:     5 x     5 x     5  =     125
superc: Number of atoms, orbitals, and projectors:    250   3250   1000

outcell: Unit cell vectors (Ang):
       -0.000062    2.796081    2.796081
        2.796081   -0.000062    2.796081
        2.796081    2.796081   -0.000062

outcell: Cell vector modules (Ang)   :    3.954256    3.954256    3.954256
outcell: Cell angles (23,13,12) (deg):     60.0015     60.0015     60.0015
outcell: Cell volume (Ang**3)        :     43.7214
<dSpData1D:S at geom step 10
  <sparsity:sparsity for geom step 10
    nrows_g=26 nrows=14 sparsity=15.2633 nnzs=10318, refcount: 7>
  <dData1D:(new from dSpData1D) n=10318, refcount: 1>
refcount: 1>
new_DM -- step:    11
Re-using DM from previous geometries...
Number of DMs in history: 1
 DM extrapolation coefficients: 
1   1.00000
New DM after history re-use:
<dSpData2D:SpM extrapolated using coords
  <sparsity:sparsity for geom step 10
    nrows_g=26 nrows=14 sparsity=15.2633 nnzs=10318, refcount: 9>
  <dData2D:(temp array for extrapolation) n=10318 m=1, refcount: 1>
refcount: 1>
Note: For starting DM, Qtot, Tr[D*S] =          8.00000000          8.12242777
No. of atoms with KB's overlaping orbs in proc 0. Max # of overlaps:      17     161

InitMesh: MESH = 36 x 36 x 36 = 46656
InitMesh: Mesh cutoff (required, used) =   300.000   343.600 Ry
New grid distribution [1]: sub = 2
New grid distribution [2]: sub = 2
New grid distribution [3]: sub = 2
Setting up quadratic distribution...

        iscf     Eharris(eV)        E_KS(eV)     FreeEng(eV)     dDmax    Ef(eV) dHmax(eV)
   scf:    1     -210.826543     -211.411774     -211.411774  0.121378 -3.750915  0.021262
   scf:    2     -211.411795     -211.411786     -211.411786  0.003103 -3.733650  0.002607
   scf:    3     -211.411786     -211.411786     -211.411786  0.000307 -3.735293  0.000202
   scf:    4     -211.411786     -211.411786     -211.411786  0.000008 -3.735251  0.000156

SCF Convergence by DM+H criterion
max |DM_out - DM_in|         :     0.0000081839
max |H_out - H_in|      (eV) :     0.0001557117
SCF cycle converged after 4 iterations

Using DM_out to compute the final energy and forces
No. of atoms with KB's overlaping orbs in proc 0. Max # of overlaps:      17     161

siesta: E_KS(eV) =             -211.4118

siesta: Atomic forces (eV/Ang):
----------------------------------------
   Tot    0.000000   -0.000000   -0.000000
----------------------------------------
   Max    0.003079
   Res    0.003079    sqrt( Sum f_i^2 / 3N )
----------------------------------------
   Max    0.003079    constrained

Stress tensor Voigt[x,y,z,yz,xz,xy] (kbar):      -30.38      -30.38      -30.38        0.05        0.05        0.05
(Free)E + p*V (eV/cell)     -210.5827
Target enthalpy (eV/cell)     -211.4118

siesta: Stress tensor (static) (eV/Ang**3):
        -0.018964    0.000031    0.000031
         0.000031   -0.018964    0.000031
         0.000031    0.000031   -0.018964

siesta: Pressure (static):         30.38330879  kBar

siesta: Stress tensor (total) (eV/Ang**3):
        -0.018964    0.000031    0.000031
         0.000031   -0.018964    0.000031
         0.000031    0.000031   -0.018964

siesta: Pressure (total):         30.38330879  kBar

                     ====================================
                        Begin CG opt. move =     11
                     ====================================
k-point displ. along   1 input, could be:     0.00    0.50
k-point displ. along   2 input, could be:     0.00    0.50
k-point displ. along   3 input, could be:     0.00    0.50
 Kpoints in:            8 . Kpoints trimmed:            8

siesta: k-grid: Number of k-points = 8
siesta: k-points from Monkhorst-Pack grid
siesta: k-cutoff (effective) =     4.004 Ang
siesta: k-point supercell and displacements
siesta: k-grid:     2     0     0      0.000
siesta: k-grid:     0     2     0      0.000
siesta: k-grid:     0     0     2      0.000

superc: Internal auxiliary supercell:     5 x     5 x     5  =     125
superc: Number of atoms, orbitals, and projectors:    250   3250   1000

outcell: Unit cell vectors (Ang):
       -0.000059    2.831016    2.831016
        2.831016   -0.000059    2.831016
        2.831016    2.831016   -0.000059

outcell: Cell vector modules (Ang)   :    4.003661    4.003661    4.003661
outcell: Cell angles (23,13,12) (deg):     60.0014     60.0014     60.0014
outcell: Cell volume (Ang**3)        :     45.3806
<dSpData1D:S at geom step 11
  <sparsity:sparsity for geom step 11
    nrows_g=26 nrows=14 sparsity=15.0148 nnzs=10150, refcount: 7>
  <dData1D:(new from dSpData1D) n=10150, refcount: 1>
refcount: 1>
new_DM -- step:    12
Re-using DM from previous geometries...
Number of DMs in history: 1
 DM extrapolation coefficients: 
1   1.00000
New DM after history re-use:
<dSpData2D:SpM extrapolated using coords
  <sparsity:sparsity for geom step 11
    nrows_g=26 nrows=14 sparsity=15.0148 nnzs=10150, refcount: 9>
  <dData2D:(temp array for extrapolation) n=10150 m=1, refcount: 1>
refcount: 1>
Note: For starting DM, Qtot, Tr[D*S] =          8.00000000          7.94550036
No. of atoms with KB's overlaping orbs in proc 0. Max # of overlaps:      17     161

InitMesh: MESH = 36 x 36 x 36 = 46656
InitMesh: Mesh cutoff (required, used) =   300.000   335.173 Ry
New grid distribution [1]: sub = 2
New grid distribution [2]: sub = 2
New grid distribution [3]: sub = 2
Setting up quadratic distribution...

        iscf     Eharris(eV)        E_KS(eV)     FreeEng(eV)     dDmax    Ef(eV) dHmax(eV)
   scf:    1     -211.733970     -211.426118     -211.426118  0.018561 -3.697508  0.010549
   scf:    2     -211.426123     -211.426120     -211.426120  0.001378 -3.706183  0.001270
   scf:    3     -211.426121     -211.426120     -211.426120  0.000134 -3.705417  0.000097
   scf:    4     -211.426120     -211.426120     -211.426120  0.000004 -3.705439  0.000074

SCF Convergence by DM+H criterion
max |DM_out - DM_in|         :     0.0000039458
max |H_out - H_in|      (eV) :     0.0000744974
SCF cycle converged after 4 iterations

Using DM_out to compute the final energy and forces
No. of atoms with KB's overlaping orbs in proc 0. Max # of overlaps:      17     161

siesta: E_KS(eV) =             -211.4261

siesta: Atomic forces (eV/Ang):
----------------------------------------
   Tot    0.000000    0.000000    0.000000
----------------------------------------
   Max    0.002773
   Res    0.002773    sqrt( Sum f_i^2 / 3N )
----------------------------------------
   Max    0.002773    constrained

Stress tensor Voigt[x,y,z,yz,xz,xy] (kbar):        1.55        1.55        1.55        0.04        0.04        0.04
(Free)E + p*V (eV/cell)     -211.4699
Target enthalpy (eV/cell)     -211.4261

siesta: Stress tensor (static) (eV/Ang**3):
         0.000966    0.000026    0.000026
         0.000026    0.000966    0.000026
         0.000026    0.000026    0.000966

siesta: Pressure (static):         -1.54731009  kBar

siesta: Stress tensor (total) (eV/Ang**3):
         0.000966    0.000026    0.000026
         0.000026    0.000966    0.000026
         0.000026    0.000026    0.000966

siesta: Pressure (total):         -1.54731009  kBar

cgvc: Finished line minimization    1.  Mean atomic displacement =    0.3470

                     ====================================
                        Begin CG opt. move =     12
                     ====================================
k-point displ. along   1 input, could be:     0.00    0.50
k-point displ. along   2 input, could be:     0.00    0.50
k-point displ. along   3 input, could be:     0.00    0.50
 Kpoints in:            8 . Kpoints trimmed:            8

siesta: k-grid: Number of k-points = 8
siesta: k-points from Monkhorst-Pack grid
siesta: k-cutoff (effective) =     3.992 Ang
siesta: k-point supercell and displacements
siesta: k-grid:     2     0     0      0.000
siesta: k-grid:     0     2     0      0.000
siesta: k-grid:     0     0     2      0.000

superc: Internal auxiliary supercell:     5 x     5 x     5  =     125
superc: Number of atoms, orbitals, and projectors:    250   3250   1000

outcell: Unit cell vectors (Ang):
       -0.010999    2.822734    2.822734
        2.822734   -0.010999    2.822734
        2.822734    2.822734   -0.010999

outcell: Cell vector modules (Ang)   :    3.991964    3.991964    3.991964
outcell: Cell angles (23,13,12) (deg):     60.2577     60.2577     60.2577
outcell: Cell volume (Ang**3)        :     45.2450
<dSpData1D:S at geom step 12
  <sparsity:sparsity for geom step 12
    nrows_g=26 nrows=14 sparsity=16.0488 nnzs=10849, refcount: 7>
  <dData1D:(new from dSpData1D) n=10849, refcount: 1>
refcount: 1>
new_DM -- step:    13
Re-using DM from previous geometries...
Number of DMs in history: 1
 DM extrapolation coefficients: 
1   1.00000
New DM after history re-use:
<dSpData2D:SpM extrapolated using coords
  <sparsity:sparsity for geom step 12
    nrows_g=26 nrows=14 sparsity=16.0488 nnzs=10849, refcount: 9>
  <dData2D:(temp array for extrapolation) n=10849 m=1, refcount: 1>
refcount: 1>
Note: For starting DM, Qtot, Tr[D*S] =          8.00000000          7.83446219
No. of atoms with KB's overlaping orbs in proc 0. Max # of overlaps:      17     161

InitMesh: MESH = 36 x 36 x 36 = 46656
InitMesh: Mesh cutoff (required, used) =   300.000   334.978 Ry
New grid distribution [1]: sub = 2
New grid distribution [2]: sub = 2
New grid distribution [3]: sub = 2
Setting up quadratic distribution...

        iscf     Eharris(eV)        E_KS(eV)     FreeEng(eV)     dDmax    Ef(eV) dHmax(eV)
   scf:    1     -209.805497     -210.173942     -210.187954  0.115464 -4.161034  0.376718
   scf:    2     -210.184992     -210.180282     -210.193832  0.051217 -4.393287  0.067574
   scf:    3     -210.180720     -210.180525     -210.194138  0.007449 -4.359083  0.005585
   scf:    4     -210.180527     -210.180526     -210.194148  0.000248 -4.360801  0.004299
   scf:    5     -210.180471     -210.180499     -210.194159  0.000596 -4.365133  0.001259
   scf:    6     -210.180469     -210.180484     -210.194159  0.000096 -4.365887  0.000815

SCF Convergence by DM+H criterion
max |DM_out - DM_in|         :     0.0000957812
max |H_out - H_in|      (eV) :     0.0008152321
SCF cycle converged after 6 iterations

Using DM_out to compute the final energy and forces
No. of atoms with KB's overlaping orbs in proc 0. Max # of overlaps:      17     161

siesta: E_KS(eV) =             -210.1805

siesta: Atomic forces (eV/Ang):
----------------------------------------
   Tot   -0.000000   -0.000000   -0.000000
----------------------------------------
   Max    4.157668
   Res    4.157668    sqrt( Sum f_i^2 / 3N )
----------------------------------------
   Max    4.157668    constrained

Stress tensor Voigt[x,y,z,yz,xz,xy] (kbar):      -61.74      -61.74      -61.74     -186.21     -186.21     -186.21
(Free)E + p*V (eV/cell)     -208.4506
Target enthalpy (eV/cell)     -210.1942

siesta: Stress tensor (static) (eV/Ang**3):
        -0.038536   -0.116223   -0.116223
        -0.116223   -0.038536   -0.116223
        -0.116223   -0.116223   -0.038536

siesta: Pressure (static):         61.74179476  kBar

siesta: Stress tensor (total) (eV/Ang**3):
        -0.038536   -0.116223   -0.116223
        -0.116223   -0.038536   -0.116223
        -0.116223   -0.116223   -0.038536

siesta: Pressure (total):         61.74179476  kBar

                     ====================================
                        Begin CG opt. move =     13
                     ====================================
k-point displ. along   1 input, could be:     0.00    0.50
k-point displ. along   2 input, could be:     0.00    0.50
k-point displ. along   3 input, could be:     0.00    0.50
 Kpoints in:            8 . Kpoints trimmed:            8

siesta: k-grid: Number of k-points = 8
siesta: k-points from Monkhorst-Pack grid
siesta: k-cutoff (effective) =     4.004 Ang
siesta: k-point supercell and displacements
siesta: k-grid:     2     0     0      0.000
siesta: k-grid:     0     2     0      0.000
siesta: k-grid:     0     0     2      0.000

superc: Internal auxiliary supercell:     5 x     5 x     5  =     125
superc: Number of atoms, orbitals, and projectors:    250   3250   1000

outcell: Unit cell vectors (Ang):
       -0.000066    2.831010    2.831010
        2.831010   -0.000066    2.831010
        2.831010    2.831010   -0.000066

outcell: Cell vector modules (Ang)   :    4.003653    4.003653    4.003653
outcell: Cell angles (23,13,12) (deg):     60.0016     60.0016     60.0016
outcell: Cell volume (Ang**3)        :     45.3805
<dSpData1D:S at geom step 13
  <sparsity:sparsity for geom step 13
    nrows_g=26 nrows=14 sparsity=15.0148 nnzs=10150, refcount: 7>
  <dData1D:(new from dSpData1D) n=10150, refcount: 1>
refcount: 1>
new_DM -- step:    14
Re-using DM from previous geometries...
Number of DMs in history: 1
 DM extrapolation coefficients: 
1   1.00000
New DM after history re-use:
<dSpData2D:SpM extrapolated using coords
  <sparsity:sparsity for geom step 13
    nrows_g=26 nrows=14 sparsity=15.0148 nnzs=10150, refcount: 9>
  <dData2D:(temp array for extrapolation) n=10150 m=1, refcount: 1>
refcount: 1>
Note: For starting DM, Qtot, Tr[D*S] =          8.00000000          7.94149589
No. of atoms with KB's overlaping orbs in proc 0. Max # of overlaps:      17     161

InitMesh: MESH = 36 x 36 x 36 = 46656
InitMesh: Mesh cutoff (required, used) =   300.000   335.173 Ry
New grid distribution [1]: sub = 2
New grid distribution [2]: sub = 2
New grid distribution [3]: sub = 2
Setting up quadratic distribution...

        iscf     Eharris(eV)        E_KS(eV)     FreeEng(eV)     dDmax    Ef(eV) dHmax(eV)
   scf:    1     -211.701440     -211.421138     -211.421138  0.100568 -3.918257  0.332049
   scf:    2     -211.429420     -211.425880     -211.425880  0.048526 -3.676401  0.049684
   scf:    3     -211.426292     -211.426103     -211.426103  0.006557 -3.709704  0.005446
   scf:    4     -211.426123     -211.426113     -211.426113  0.000255 -3.709097  0.003492
   scf:    5     -211.426127     -211.426121     -211.426121  0.000604 -3.707190  0.001717
   scf:    6     -211.426121     -211.426121     -211.426121  0.000131 -3.706817  0.001239
   scf:    7     -211.426122     -211.426121     -211.426121  0.000329 -3.705552  0.000154
   scf:    8     -211.426121     -211.426121     -211.426121  0.000008 -3.705519  0.000097

SCF Convergence by DM+H criterion
max |DM_out - DM_in|         :     0.0000080895
max |H_out - H_in|      (eV) :     0.0000971016
SCF cycle converged after 8 iterations

Using DM_out to compute the final energy and forces
No. of atoms with KB's overlaping orbs in proc 0. Max # of overlaps:      17     161

siesta: E_KS(eV) =             -211.4261

siesta: Atomic forces (eV/Ang):
----------------------------------------
   Tot   -0.000000    0.000000   -0.000000
----------------------------------------
   Max    0.000187
   Res    0.000187    sqrt( Sum f_i^2 / 3N )
----------------------------------------
   Max    0.000187    constrained

Stress tensor Voigt[x,y,z,yz,xz,xy] (kbar):        1.54        1.54        1.54       -0.01       -0.01       -0.01
(Free)E + p*V (eV/cell)     -211.4697
Target enthalpy (eV/cell)     -211.4261

siesta: Stress tensor (static) (eV/Ang**3):
         0.000960   -0.000009   -0.000009
        -0.000009    0.000960   -0.000009
        -0.000009   -0.000009    0.000960

siesta: Pressure (static):         -1.53822884  kBar

siesta: Stress tensor (total) (eV/Ang**3):
         0.000960   -0.000009   -0.000009
        -0.000009    0.000960   -0.000009
        -0.000009   -0.000009    0.000960

siesta: Pressure (total):         -1.53822884  kBar

outcoor: Relaxed atomic coordinates (fractional):           
    0.25000276    0.25000276    0.25000276   1       1  Si
   -0.00000276   -0.00000276   -0.00000276   1       2  Si

outcell: Unit cell vectors (Ang):
       -0.000066    2.831010    2.831010
        2.831010   -0.000066    2.831010
        2.831010    2.831010   -0.000066

outcell: Cell vector modules (Ang)   :    4.003653    4.003653    4.003653
outcell: Cell angles (23,13,12) (deg):     60.0016     60.0016     60.0016
outcell: Cell volume (Ang**3)        :     45.3805

siesta: Program's energy decomposition (eV):
siesta: Ebs     =       -69.431501
siesta: Eions   =       444.480597
siesta: Ena     =       175.679127
siesta: Ekin    =        83.676300
siesta: Enl     =        33.938465
siesta: Eso     =         0.000000
siesta: Edftu   =         0.000000
siesta: DEna    =         3.675074
siesta: DUscf   =         0.565108
siesta: DUext   =         0.000000
siesta: Ex      =       -56.528104
siesta: Ec      =        -7.951494
siesta: Exc     =       -64.479598
siesta: EbV     =         0.000000
siesta: eta*DQ  =         0.000000
siesta: Emadel  =         0.000000
siesta: Emeta   =         0.000000
siesta: Emolmec =         0.000000
siesta: Ekinion =         0.000000
siesta: Eharris =      -211.426121
siesta: Etot    =      -211.426121
siesta: FreeEng =      -211.426121

siesta: Final energy (eV):
siesta:  Band Struct. =     -69.431501
siesta:       Kinetic =      83.676300
siesta:       Hartree =      18.270084
siesta:         Edftu =       0.000000
siesta:       Eso     =       0.000000
siesta:    Ext. field =       0.000000
siesta:         Exch. =     -56.528104
siesta:         Corr. =      -7.951494
siesta:     Bulk bias =       0.000000
siesta:   Exch.-corr. =     -64.479598
siesta:  Ion-electron =    -105.827264
siesta:       Ion-ion =    -143.065644
siesta:       Ekinion =       0.000000
siesta: D3 dispersion =       0.000000
siesta:         Total =    -211.426121
siesta:         Fermi =      -3.705519

siesta: Stress tensor (static) (eV/Ang**3):
siesta:     0.000960   -0.000009   -0.000009
siesta:    -0.000009    0.000960   -0.000009
siesta:    -0.000009   -0.000009    0.000960

siesta: Constrained stress tensor (static) (eV/Ang**3):
siesta:     0.000960   -0.000009   -0.000009
siesta:    -0.000009    0.000960   -0.000009
siesta:    -0.000009   -0.000009    0.000960

siesta: Cell volume =         45.380533 Ang**3

siesta: Pressure (static):
siesta:                Solid            Molecule  Units
siesta:          -0.00001046         -0.00001039  Ry/Bohr**3
siesta:          -0.00096009         -0.00095425  eV/Ang**3
siesta:          -1.53822884         -1.52888271  kBar
(Free)E+ p_basis*V_orbitals  =        -209.911166
(Free)Eharris+ p_basis*V_orbitals  =        -209.911166

cite: Please see "Si-diamond.bib" for an exhaustive BiBTeX file.
cite: Please clearly indicate Siesta version in published work: 5.0.1
cite: This calculation has made use of the following articles
cite: which are encouraged to be cited in a published work.
        Primary SIESTA paper
          DOI: www.doi.org/10.1088/0953-8984/14/11/302


>> End of run:   5-DEC-2024  17:23:13
Job completed
